ITEM: TIMESTEP
2336406
ITEM: NUMBER OF ATOMS
5816
ITEM: BOX BOUNDS pp pp pp
0.0000000000000000e+00 1.5000000000000000e+02
0.0000000000000000e+00 1.5000000000000000e+02
0.0000000000000000e+00 2.5886599999999999e+02
ITEM: ATOMS id element type x y z 
128 C 1 73.2659 67.8316 7.77749 
138 C 1 72.0245 68.1794 3.71456 
139 C 1 72.3764 68.0077 5.08945 
140 C 1 73.7487 67.7596 5.36745 
141 C 1 74.222 67.7949 6.72848 
148 C 1 72.51 68.2002 1.37612 
149 C 1 72.9254 67.8934 2.65509 
150 C 1 74.2573 67.6358 2.94706 
151 C 1 74.7153 67.6061 4.30995 
161 C 1 73.3862 67.9259 0.267679 
162 C 1 74.7769 67.7789 0.57953 
127 C 1 71.9216 68.2083 7.46578 
126 C 1 71.493 68.4359 6.13459 
142 C 1 75.5961 67.9187 7.00036 
152 C 1 76.0892 67.8574 4.56857 
153 C 1 76.5398 68.0797 5.91509 
154 C 1 77.8318 68.4806 6.18331 
163 C 1 75.2191 67.7045 1.91365 
164 C 1 76.593 67.9372 2.15205 
165 C 1 76.9836 68.1216 3.51558 
175 C 1 77.5096 68.1878 1.08753 
155 C 1 78.2927 68.727 7.50735 
166 C 1 78.3072 68.6001 3.72356 
98 C 1 67.8178 73.6345 6.14195 
99 C 1 68.0186 73.1907 7.47094 
109 C 1 67.6883 74.5317 3.4905 
110 C 1 67.9277 73.1624 3.72176 
111 C 1 68.1805 72.7378 5.03609 
119 C 1 67.6791 74.0401 1.05942 
120 C 1 68.009 72.69 1.34068 
121 C 1 68.1437 72.2474 2.68173 
133 C 1 68.4636 71.8518 0.2677 
100 C 1 68.517 71.8442 7.68419 
147 C 1 71.2631 68.8203 1.07858 
112 C 1 68.7649 71.5007 5.2978 
113 C 1 68.8958 71.0209 6.61511 
122 C 1 68.8316 71.0393 2.95477 
114 C 1 69.6566 69.8171 6.86779 
123 C 1 69.2401 70.6951 4.27274 
124 C 1 70.0704 69.5489 4.46612 
125 C 1 70.3457 69.1976 5.78733 
134 C 1 69.2002 70.6758 0.551058 
135 C 1 69.4043 70.25 1.8402 
136 C 1 70.4241 69.3035 2.14819 
137 C 1 70.8479 68.9924 3.43174 
176 C 1 78.7674 68.7978 1.34511 
167 C 1 78.7619 68.7614 5.10547 
177 C 1 79.1936 69.0303 2.68243 
156 C 1 79.5057 69.3524 7.74055 
168 C 1 79.8675 69.6139 5.37857 
169 C 1 80.2144 69.9665 6.7153 
178 C 1 80.2587 69.9808 2.96957 
179 C 1 80.4624 70.3159 4.32474 
185 C 1 79.5258 69.3258 0.267663 
186 C 1 80.5434 70.2189 0.52382 
187 C 1 80.8381 70.6639 1.85672 
170 C 1 81.1045 71.0637 7.03937 
180 C 1 81.2687 71.4439 4.60548 
181 C 1 81.5408 71.8799 5.90069 
182 C 1 82.1349 73.182 6.17033 
183 C 1 82.2869 73.5767 7.53757 
188 C 1 81.5489 71.839 2.20311 
189 C 1 81.7067 72.2679 3.54604 
190 C 1 82.1749 73.6001 3.82489 
191 C 1 82.3178 74.1125 5.12025 
193 C 1 81.9072 72.7128 1.12143 
194 C 1 82.1915 74.0599 1.34502 
195 C 1 82.2307 74.5223 2.73831 
108 C 1 67.6688 75.0259 2.10034 
97 C 1 67.5855 75.052 5.86582 
84 C 1 68.2778 77.7152 5.3094 
85 C 1 68.0392 77.3447 6.68127 
86 C 1 67.6325 76.0058 6.96254 
94 C 1 67.9987 77.2639 2.9192 
95 C 1 67.953 76.857 4.29754 
96 C 1 67.6846 75.4906 4.53596 
105 C 1 68.4629 78.1486 0.267702 
106 C 1 67.9629 76.8484 0.472058 
107 C 1 67.7974 76.401 1.81396 
72 C 1 68.391 78.1365 7.78954 
93 C 1 68.5636 78.5907 2.67149 
83 C 1 68.9532 78.9155 5.06831 
92 C 1 68.8557 78.9994 1.30113 
69 C 1 70.4699 80.6676 5.91377 
70 C 1 69.4704 79.6649 6.15049 
71 C 1 69.1671 79.2683 7.50361 
80 C 1 70.4393 80.727 2.14583 
81 C 1 70.1559 80.2988 3.48094 
82 C 1 69.2035 79.2546 3.7352 
91 C 1 69.7815 80.0368 1.07501 
68 C 1 70.8841 80.904 4.53619 
58 C 1 71.2456 81.1819 7.0031 
14 C 1 81.0539 79.4405 6.06714 
15 C 1 80.6879 79.7891 7.43258 
16 C 1 79.5923 80.6793 7.76217 
26 C 1 80.6036 79.7608 3.71764 
27 C 1 80.3385 80.1854 5.04642 
36 C 1 80.1446 80.0886 1.36673 
37 C 1 79.8567 80.4178 2.68115 
49 C 1 79.5252 80.6729 0.267714 
35 C 1 80.986 78.9879 1.0519 
28 C 1 79.2351 81.0792 5.36153 
184 C 1 82.5036 75.0014 7.7404 
25 C 1 81.38 78.607 3.47244 
13 C 1 81.8678 78.2621 5.86629 
5 C 1 82.4502 75.9744 6.721 
6 C 1 82.2442 77.3701 6.94925 
11 C 1 82.3352 76.4553 4.2866 
12 C 1 81.9423 77.8159 4.51195 
21 C 1 82.2574 75.0001 0.267689 
22 C 1 82.1244 76.3875 0.53607 
23 C 1 81.8833 76.8459 1.87912 
24 C 1 81.4548 78.1764 2.11969 
192 C 1 82.3922 75.5332 5.35022 
196 C 1 82.2365 75.9536 2.94649 
79 C 1 71.6551 81.4399 1.85743 
43 C 1 74.7784 82.301 7.49573 
44 C 1 73.3848 82.1184 7.75448 
54 C 1 74.801 82.3636 3.738 
55 C 1 74.3453 82.2821 5.15995 
56 C 1 72.9469 81.9308 5.39221 
57 C 1 72.4898 81.7564 6.71201 
64 C 1 74.3087 82.2659 1.32536 
65 C 1 73.9167 82.2674 2.66951 
66 C 1 72.5518 81.8377 2.94125 
67 C 1 72.105 81.6029 4.28145 
77 C 1 73.3866 82.0749 0.267687 
78 C 1 72.0639 81.6351 0.536058 
38 C 1 78.789 81.3174 2.94528 
29 C 1 78.9067 81.2765 6.69985 
39 C 1 78.409 81.543 4.31819 
30 C 1 77.5726 81.7988 6.97036 
40 C 1 77.1162 82.1302 4.57453 
41 C 1 76.6936 82.2047 5.94004 
42 C 1 75.2926 82.3436 6.19441 
50 C 1 78.357 81.4332 0.536062 
51 C 1 77.9467 81.7124 1.87593 
52 C 1 76.6494 82.1677 2.18639 
53 C 1 76.1712 82.3883 3.52303 
63 C 1 75.7265 82.3059 1.06462 
118 C 1 72.8498 67.918 10.1847 
129 C 1 73.7457 67.7377 9.15727 
344 C 1 72.2964 68.1275 12.574 
345 C 1 72.7813 67.9681 13.9267 
346 C 1 74.191 67.7975 14.2203 
357 C 1 73.3022 67.8256 11.5311 
358 C 1 74.7297 67.7139 11.8273 
334 C 1 71.9607 68.399 15.0293 
347 C 1 74.6602 67.8271 15.5235 
117 C 1 71.5384 68.4611 9.86366 
116 C 1 71.0939 68.6606 8.53535 
359 C 1 75.1296 67.6931 13.1558 
130 C 1 75.1658 67.7945 9.37183 
131 C 1 75.6484 67.7644 10.7285 
132 C 1 76.9955 67.9844 10.9546 
143 C 1 76.0755 67.9489 8.31033 
144 C 1 77.4137 68.3198 8.56741 
348 C 1 76.1164 67.8547 15.7856 
360 C 1 76.5778 67.8959 13.3788 
361 C 1 77.027 67.968 14.7188 
371 C 1 77.5076 68.0994 12.3094 
145 C 1 77.9248 68.3276 9.92096 
362 C 1 78.347 68.409 14.9788 
76 C 1 67.7529 74.4782 10.9571 
88 C 1 67.7457 74.0716 8.53678 
89 C 1 67.8877 73.6001 9.82615 
90 C 1 68.2357 72.2508 10.1678 
305 C 1 67.7357 74.4866 14.6509 
306 C 1 67.8417 73.1056 14.9584 
315 C 1 67.7518 74.0649 12.2876 
316 C 1 68.0067 72.6947 12.591 
317 C 1 68.1963 72.237 13.9136 
329 C 1 68.3777 71.8 11.521 
101 C 1 68.6241 71.4259 9.07319 
343 C 1 71.0769 68.7808 12.2684 
318 C 1 68.7721 70.9313 14.153 
333 C 1 70.7349 68.9889 14.701 
104 C 1 70.7042 68.9868 10.9411 
102 C 1 69.3819 70.2739 9.31229 
103 C 1 69.7207 69.9231 10.6501 
115 C 1 70.0406 69.5865 8.2237 
319 C 1 69.0131 70.5003 15.4892 
320 C 1 69.9635 69.5135 15.7824 
330 C 1 69.0646 70.5937 11.7532 
331 C 1 69.3038 70.235 13.098 
332 C 1 70.3289 69.2605 13.3901 
372 C 1 78.7214 68.7658 12.5758 
146 C 1 79.1531 68.9252 10.1643 
373 C 1 79.165 68.9718 13.952 
157 C 1 79.8388 69.6074 9.09251 
158 C 1 80.7992 70.6027 9.3581 
374 C 1 80.2274 69.8542 14.2192 
375 C 1 80.5155 70.2194 15.5654 
381 C 1 79.5159 69.2286 11.4814 
382 C 1 80.4473 70.26 11.7894 
383 C 1 80.7661 70.651 13.1222 
159 C 1 80.9539 70.9928 10.6659 
376 C 1 81.2131 71.4181 15.8194 
171 C 1 81.4396 71.426 8.34361 
384 C 1 81.4398 71.8245 13.3951 
160 C 1 81.7042 72.1788 10.992 
172 C 1 82.0745 72.6799 8.63168 
173 C 1 82.0846 73.1271 9.96656 
174 C 1 82.4164 74.5 10.1735 
385 C 1 81.6031 72.3197 14.7079 
386 C 1 82.0119 73.6412 15.002 
389 C 1 81.7896 72.6629 12.3361 
390 C 1 82.164 74.08 12.5487 
391 C 1 82.2815 74.5428 13.8871 
217 C 1 82.4067 74.9691 11.5056 
304 C 1 67.7106 75.0029 13.3556 
73 C 1 68.1487 77.7596 9.10435 
74 C 1 67.8128 76.3934 9.37334 
75 C 1 67.7807 75.8927 10.6939 
87 C 1 67.6656 75.4905 8.27225 
290 C 1 68.0979 77.2875 14.2033 
291 C 1 67.9899 76.7564 15.4769 
292 C 1 67.8297 75.3953 15.7221 
302 C 1 67.8411 76.8299 11.7872 
303 C 1 67.8193 76.4077 13.1462 
301 C 1 68.3459 78.1257 11.5224 
289 C 1 68.6449 78.5869 13.9521 
62 C 1 68.5212 78.5781 10.2309 
288 C 1 68.8701 78.9527 12.6207 
48 C 1 70.0834 80.3928 10.9329 
60 C 1 69.8171 79.9743 8.57221 
61 C 1 69.4021 79.7294 9.90772 
276 C 1 70.4476 80.7273 13.3654 
277 C 1 70.2112 80.3113 14.7163 
278 C 1 69.2138 79.3245 14.9955 
287 C 1 69.7129 80.0521 12.3359 
59 C 1 70.9244 80.8488 8.34985 
264 C 1 70.9351 80.8861 15.7213 
47 C 1 71.2357 81.1868 10.7167 
9 C 1 80.8799 79.3404 9.8145 
10 C 1 79.913 80.3116 10.1847 
222 C 1 80.5786 79.7406 14.9332 
232 C 1 80.3137 80.031 12.513 
233 C 1 79.9831 80.4253 13.8743 
245 C 1 79.5552 80.6458 11.4747 
17 C 1 79.2044 80.8457 9.13851 
231 C 1 81.1893 78.9474 12.2483 
234 C 1 78.8196 81.2299 14.1683 
8 C 1 81.2777 79.089 8.49606 
4 C 1 81.357 78.5064 10.9252 
221 C 1 81.3879 78.5884 14.6691 
220 C 1 81.726 78.2004 13.3491 
1 C 1 82.3662 75.4489 9.07746 
2 C 1 82.1209 76.8386 9.35043 
3 C 1 81.9025 77.1648 10.6971 
7 C 1 81.9936 77.8306 8.30935 
207 C 1 82.1495 76.4054 15.5369 
208 C 1 81.8233 77.7694 15.7794 
218 C 1 82.2944 76.3455 11.7943 
219 C 1 82.315 76.9178 13.1188 
392 C 1 82.3652 75.9618 14.1946 
275 C 1 71.5985 81.5468 13.1142 
46 C 1 71.6974 81.3713 9.36036 
263 C 1 72.0975 81.6303 15.5041 
274 C 1 71.9951 81.7219 11.7636 
261 C 1 73.7994 82.2591 13.8826 
273 C 1 73.3135 82.2086 11.4973 
262 C 1 72.4773 81.8473 14.1551 
260 C 1 74.2588 82.4147 12.5495 
34 C 1 73.8422 82.2813 10.1639 
45 C 1 72.9595 82.0125 9.08765 
250 C 1 74.7573 82.4167 14.9546 
246 C 1 78.3817 81.3778 11.7947 
235 C 1 78.4146 81.4259 15.481 
32 C 1 75.7338 82.1955 8.58917 
259 C 1 75.6877 82.3176 12.2925 
248 C 1 76.6173 82.0781 13.3307 
33 C 1 75.2502 82.2356 9.90821 
20 C 1 76.1952 82.1121 10.9575 
236 C 1 77.052 81.8877 15.7142 
249 C 1 76.133 82.1619 14.6744 
247 C 1 77.93 81.6546 13.1301 
19 C 1 77.538 81.6544 10.6974 
18 C 1 77.9417 81.3756 9.37102 
31 C 1 77.0486 81.7549 8.3365 
314 C 1 72.8831 67.9363 21.4177 
324 C 1 73.317 67.853 18.9694 
325 C 1 73.7568 67.6355 20.2969 
336 C 1 73.7476 67.8724 16.5722 
337 C 1 74.252 67.7911 17.8799 
540 C 1 72.4221 68.1587 23.854 
553 C 1 73.3159 67.803 22.7918 
335 C 1 72.4002 68.2564 16.3897 
323 C 1 72.0499 68.4295 18.7311 
554 C 1 74.6977 67.6454 23.0403 
322 C 1 71.5814 68.6403 17.4359 
313 C 1 71.645 68.5467 21.1338 
539 C 1 71.1585 68.7236 23.5328 
326 C 1 75.1487 67.6986 20.5643 
327 C 1 75.5855 67.8217 21.9227 
328 C 1 76.9638 68.0405 22.1702 
338 C 1 75.6093 67.6885 18.1886 
339 C 1 76.1182 67.7994 19.5372 
340 C 1 77.4518 68.1355 19.8587 
349 C 1 76.5381 67.8278 17.1623 
567 C 1 77.436 68.1805 23.5552 
341 C 1 77.9174 68.2676 21.1656 
350 C 1 77.8796 68.244 17.4552 
351 C 1 78.3236 68.5261 18.7953 
363 C 1 78.7319 68.6796 16.3344 
568 C 1 78.736 68.6711 23.7984 
272 C 1 67.871 74.5497 22.2588 
284 C 1 67.6951 74.0292 19.8347 
285 C 1 67.9377 73.6123 21.1663 
294 C 1 67.7682 73.5402 17.3624 
295 C 1 67.9339 73.1356 18.7451 
511 C 1 67.9308 74.0155 23.579 
512 C 1 68.1939 72.654 23.8638 
307 C 1 68.0316 72.6257 16.3073 
286 C 1 68.3407 72.2934 21.4801 
296 C 1 68.4585 71.8157 19.0136 
525 C 1 68.4571 71.7665 22.8006 
297 C 1 68.7442 71.4981 20.3595 
308 C 1 68.4974 71.3481 16.5974 
293 C 1 67.6999 74.9205 17.1066 
312 C 1 71.247 68.8043 19.7827 
309 C 1 68.7821 70.9658 17.9499 
300 C 1 70.8915 69.025 22.2187 
526 C 1 69.2102 70.6063 23.0884 
298 C 1 69.5366 70.323 20.6284 
299 C 1 69.8228 69.9109 21.9974 
310 C 1 69.6522 69.8772 18.1871 
311 C 1 70.0864 69.6356 19.5115 
321 C 1 70.3154 69.2379 17.132 
342 C 1 79.0835 69.0084 21.424 
352 C 1 79.5142 69.222 19.0165 
353 C 1 79.9029 69.5168 20.3925 
354 C 1 80.9409 70.5113 20.6337 
364 C 1 79.8707 69.4682 16.6452 
365 C 1 80.1798 69.8184 17.9742 
577 C 1 79.4564 69.3434 22.7572 
578 C 1 80.4893 70.2493 23.0325 
355 C 1 81.1444 70.9783 21.9704 
366 C 1 81.0182 70.9739 18.2023 
367 C 1 81.3484 71.3971 19.5554 
377 C 1 81.4448 71.8285 17.1393 
356 C 1 81.6845 72.2615 22.2264 
368 C 1 81.8153 72.6819 19.8505 
369 C 1 81.8971 73.1616 21.1816 
370 C 1 82.1841 74.5528 21.4517 
378 C 1 81.8666 73.1683 17.4601 
379 C 1 81.9858 73.6086 18.7864 
585 C 1 81.9539 72.7105 23.5849 
586 C 1 82.0569 74.1157 23.8756 
387 C 1 82.0423 74.0912 16.3468 
269 C 1 68.27 77.7077 20.3397 
270 C 1 67.804 76.3535 20.6004 
271 C 1 67.8415 75.9114 21.9613 
280 C 1 68.2411 77.6946 16.5763 
281 C 1 68.178 77.2273 17.9421 
282 C 1 67.7757 75.8862 18.1622 
283 C 1 67.6911 75.4274 19.5028 
498 C 1 68.0957 76.8366 22.9676 
497 C 1 68.4903 78.2072 22.7458 
268 C 1 68.5531 78.105 19.0201 
258 C 1 68.6998 78.5718 21.4216 
279 C 1 68.8585 78.9723 16.3664 
484 C 1 68.9325 79.0307 23.8282 
244 C 1 70.1565 80.4003 22.1834 
256 C 1 69.9187 80.0181 19.8157 
257 C 1 69.5578 79.7093 21.1313 
265 C 1 70.5992 80.641 17.0777 
266 C 1 69.5174 79.7129 17.3555 
267 C 1 69.2831 79.3248 18.7459 
483 C 1 69.7693 80.1602 23.5383 
255 C 1 70.952 80.9448 19.5422 
254 C 1 71.3526 81.1613 18.1885 
243 C 1 71.2822 81.1879 21.9515 
205 C 1 80.8747 79.4027 21.1572 
206 C 1 79.9975 80.4577 21.3998 
210 C 1 80.9342 79.3974 17.4337 
211 C 1 80.5993 79.7909 18.7524 
212 C 1 79.5204 80.641 19.0448 
428 C 1 80.4326 80.3055 23.7972 
441 C 1 79.6837 80.8502 22.6951 
223 C 1 80.2973 80.1056 16.3139 
224 C 1 79.1974 80.9572 16.5854 
213 C 1 79.2445 81.0105 20.3684 
427 C 1 81.1315 79.0743 23.5697 
225 C 1 78.7505 81.1353 17.978 
204 C 1 81.1408 79.0364 19.7798 
413 C 1 82.2214 75.0463 22.7909 
380 C 1 82.1014 75.0099 19.0219 
200 C 1 81.3609 78.6405 22.2409 
209 C 1 81.641 78.1952 17.1135 
197 C 1 82.1693 75.4656 20.368 
198 C 1 81.9141 76.8317 20.6229 
199 C 1 81.8665 77.3408 21.9489 
201 C 1 82.1821 75.9561 17.9646 
202 C 1 81.9497 77.3644 18.1833 
203 C 1 81.71 77.7381 19.5596 
388 C 1 82.1952 75.4832 16.5907 
414 C 1 82.1448 76.4354 23.0216 
242 C 1 71.7094 81.4087 20.6172 
470 C 1 72.141 81.6129 22.9898 
230 C 1 73.8914 82.1158 21.366 
240 C 1 73.4225 82.1208 18.9768 
241 C 1 73.0164 81.9229 20.2849 
251 C 1 74.3251 82.4539 16.3017 
252 C 1 72.9801 82.0211 16.5145 
253 C 1 72.5533 81.8375 17.8723 
456 C 1 74.4089 82.1294 23.8429 
469 C 1 73.5141 81.9737 22.7405 
239 C 1 74.8471 82.3567 18.6807 
442 C 1 78.5517 81.6592 23.0283 
214 C 1 78.026 81.7162 20.5974 
229 C 1 75.299 82.2376 21.0994 
238 C 1 75.2801 82.3692 17.3313 
215 C 1 77.6453 81.9301 21.938 
216 C 1 76.2558 82.1895 22.2119 
226 C 1 77.51 81.7967 18.1597 
227 C 1 77.0861 81.9291 19.4855 
228 C 1 75.7358 82.2197 19.7582 
237 C 1 76.6701 82.0692 17.0499 
455 C 1 75.8039 82.1436 23.6001 
520 C 1 73.3434 67.7992 30.239 
521 C 1 73.7742 67.7475 31.6271 
531 C 1 72.4444 68.1169 27.5961 
532 C 1 73.7913 67.7389 27.8617 
533 C 1 74.2498 67.7055 29.1659 
541 C 1 72.84 68.0169 25.1884 
542 C 1 74.2309 67.7249 25.5042 
519 C 1 72.0213 68.3372 30.0129 
530 C 1 71.9259 68.3067 26.2786 
543 C 1 74.7314 67.6588 26.8039 
518 C 1 71.6766 68.5625 28.6689 
522 C 1 75.1799 67.7434 31.9042 
555 C 1 75.1395 67.7499 24.3781 
534 C 1 75.6534 67.7379 29.441 
535 C 1 76.1081 67.8725 30.8176 
536 C 1 77.4566 68.2543 31.0193 
544 C 1 76.107 67.9033 27.0906 
545 C 1 76.6454 67.9065 28.3994 
556 C 1 76.5241 67.9328 24.624 
557 C 1 77.0426 68.101 25.9835 
546 C 1 77.958 68.3379 28.5891 
558 C 1 78.3537 68.521 26.2123 
547 C 1 78.3166 68.6583 29.936 
559 C 1 78.8489 68.739 27.5335 
480 C 1 67.7269 74.0581 31.0344 
490 C 1 67.8117 73.5812 28.6097 
491 C 1 67.8861 73.1608 29.9424 
501 C 1 67.9122 74.4867 25.9478 
502 C 1 68.0365 73.0764 26.2826 
503 C 1 68.1023 72.6175 27.6088 
513 C 1 68.2273 72.1517 25.2112 
492 C 1 68.3559 71.8017 30.2375 
504 C 1 68.5815 71.3181 27.8798 
493 C 1 68.6034 71.4011 31.6048 
500 C 1 67.9065 74.9605 24.6253 
489 C 1 67.7714 74.9909 28.3532 
508 C 1 71.2426 68.8774 31.0642 
505 C 1 68.8478 70.9732 29.2416 
514 C 1 68.8111 70.8894 25.4728 
529 C 1 70.7247 68.9254 25.9726 
527 C 1 69.4732 70.2296 24.4212 
515 C 1 69.0433 70.4897 26.8114 
494 C 1 69.4539 70.2771 31.8909 
506 C 1 69.7204 69.8687 29.484 
507 C 1 70.0662 69.4999 30.8055 
516 C 1 70.0087 69.485 27.0747 
517 C 1 70.4507 69.249 28.4222 
528 C 1 70.3842 69.1861 24.61 
569 C 1 79.2064 68.9508 25.1081 
579 C 1 80.8069 70.6762 24.376 
548 C 1 79.48 69.3954 30.224 
549 C 1 79.8963 69.6814 31.5749 
560 C 1 79.9773 69.523 27.8344 
561 C 1 80.2885 69.9418 29.1984 
570 C 1 80.2385 69.8529 25.4504 
571 C 1 80.4914 70.1977 26.7824 
550 C 1 80.9285 70.6913 31.8708 
562 C 1 81.1535 70.9966 29.4894 
572 C 1 81.17 71.4179 27.0238 
563 C 1 81.3966 71.4589 30.8209 
580 C 1 81.5605 71.8134 24.6616 
573 C 1 81.485 71.9129 28.397 
581 C 1 81.5793 72.2287 25.9859 
564 C 1 81.9494 72.7702 31.0565 
574 C 1 81.9289 73.2449 28.6566 
575 C 1 82.1109 73.6243 30.0014 
582 C 1 81.9305 73.61 26.2501 
583 C 1 82.131 74.116 27.5533 
587 C 1 82.0687 74.6056 25.197 
499 C 1 68.0741 76.3838 24.3776 
466 C 1 67.7961 76.3806 31.8236 
477 C 1 68.2892 77.2702 29.1657 
478 C 1 67.8632 75.9258 29.3849 
479 C 1 67.7087 75.4528 30.7735 
486 C 1 68.2807 77.2938 25.4762 
487 C 1 68.306 76.8407 26.8273 
488 C 1 67.924 75.4498 27.0272 
476 C 1 68.629 77.7028 27.8646 
465 C 1 68.2345 77.7688 31.5332 
464 C 1 68.5242 78.2032 30.2378 
485 C 1 68.7323 78.6317 25.1757 
475 C 1 69.1953 78.931 27.6041 
474 C 1 69.3109 79.3935 26.2788 
463 C 1 69.2841 79.3752 30.0392 
452 C 1 69.8933 80.093 31.0639 
461 C 1 70.5778 80.7328 28.4109 
462 C 1 69.6036 79.7405 28.6994 
472 C 1 70.5818 80.7094 24.64 
473 C 1 70.2929 80.3482 26.0214 
460 C 1 71.0278 80.9754 27.0632 
451 C 1 70.9635 80.9617 30.817 
450 C 1 71.3967 81.1869 29.4494 
407 C 1 80.677 79.8958 29.9204 
408 C 1 79.7179 80.9145 30.1869 
418 C 1 80.6936 79.8579 26.1908 
419 C 1 80.3129 80.1559 27.5468 
429 C 1 80.0912 80.59 25.1409 
406 C 1 80.9525 79.4408 28.6499 
409 C 1 79.4233 81.2034 31.5051 
420 C 1 79.3384 81.1485 27.8004 
400 C 1 81.2831 79.1705 31.0042 
576 C 1 82.1568 75.0668 30.3056 
417 C 1 81.3971 78.6172 25.9511 
416 C 1 81.5612 78.2388 24.5936 
405 C 1 81.6052 78.1749 28.3477 
404 C 1 81.7294 77.7561 27.0228 
415 C 1 81.9177 76.8736 24.3105 
393 C 1 82.221 75.5933 31.5744 
394 C 1 82.0513 76.9763 31.8633 
397 C 1 82.1605 75.9259 29.2011 
398 C 1 81.8887 77.2789 29.4247 
399 C 1 81.8055 77.8571 30.7921 
403 C 1 82.052 76.4105 26.7778 
584 C 1 82.2272 75.492 27.8363 
588 C 1 82.004 75.9865 25.4253 
438 C 1 71.8265 81.4554 31.8274 
471 C 1 71.7247 81.442 24.3686 
459 C 1 72.2095 81.6864 26.7879 
436 C 1 73.5052 82.1904 30.1896 
437 C 1 73.0741 82.0817 31.5517 
447 C 1 74.4365 82.37 27.5534 
448 C 1 73.0383 82.0766 27.8326 
449 C 1 72.6659 81.8363 29.1723 
457 C 1 73.9374 82.1416 25.1743 
458 C 1 72.5543 81.8219 25.4259 
435 C 1 74.8848 82.4156 29.9857 
446 C 1 74.9072 82.2893 26.2364 
421 C 1 79.0103 81.4973 29.1222 
430 C 1 78.9324 81.3524 25.4807 
431 C 1 78.5289 81.6034 26.8073 
444 C 1 76.7781 82.145 24.6277 
445 C 1 76.2708 82.1159 25.9515 
434 C 1 75.3523 82.3542 28.6385 
443 C 1 78.0965 81.7979 24.4166 
423 C 1 77.1978 82.097 30.7855 
433 C 1 76.7434 82.1981 28.3646 
422 C 1 77.6633 82.0045 29.4223 
432 C 1 77.2005 82.038 27.0609 
410 C 1 78.132 81.8334 31.8015 
424 C 1 75.7926 82.3779 31.0548 
510 C 1 72.9193 67.9648 32.6881 
727 C 1 72.451 68.0407 38.8314 
728 C 1 73.8058 67.776 39.1035 
736 C 1 72.5137 68.2296 35.1019 
737 C 1 72.9453 68.0472 36.4495 
738 C 1 74.3296 67.8669 36.6912 
749 C 1 73.4119 67.9912 34.0163 
726 C 1 72.0609 68.2855 37.5005 
739 C 1 74.7641 67.7175 38.0071 
750 C 1 74.7638 67.9553 34.3239 
714 C 1 71.6498 68.434 39.9131 
509 C 1 71.6856 68.6104 32.398 
729 C 1 74.2674 67.7518 40.4333 
751 C 1 75.2606 67.9255 35.6313 
523 C 1 75.6614 67.9079 33.2067 
524 C 1 77.0154 68.2187 33.4219 
740 C 1 76.1689 67.8139 38.2493 
741 C 1 76.6497 67.9174 39.6082 
752 C 1 76.6569 68.0982 35.8332 
753 C 1 77.1046 68.0893 37.1911 
763 C 1 77.4915 68.3151 34.7751 
742 C 1 78.0448 68.3192 39.8718 
754 C 1 78.3429 68.6542 37.4972 
537 C 1 77.928 68.4261 32.3628 
468 C 1 67.6944 74.5352 33.4285 
686 C 1 67.8313 73.5902 39.9246 
697 C 1 67.7084 74.491 37.2476 
698 C 1 67.9454 73.1414 37.5303 
699 C 1 68.1199 72.6959 38.8643 
707 C 1 67.7684 74.1245 34.8353 
708 C 1 68.0604 72.7588 35.0921 
482 C 1 68.1668 72.2556 32.6712 
709 C 1 68.2111 72.2612 36.4254 
721 C 1 68.3841 71.8472 34.0709 
685 C 1 67.708 74.9674 39.635 
481 C 1 67.8094 73.6114 32.3834 
735 C 1 71.367 68.9284 34.8047 
496 C 1 70.9444 69.1814 33.4754 
700 C 1 68.8313 71.4847 39.1253 
710 C 1 68.9642 71.0163 36.7115 
725 C 1 70.8701 68.8852 37.1946 
711 C 1 69.283 70.655 38.1106 
722 C 1 69.1441 70.6629 34.3331 
495 C 1 69.8483 70.0235 33.2603 
712 C 1 70.2 69.5592 38.2698 
713 C 1 70.4847 69.2157 39.6173 
723 C 1 69.504 70.2256 35.6549 
724 C 1 70.5059 69.2615 35.8669 
755 C 1 78.8319 68.853 38.8374 
764 C 1 78.8351 68.8601 35.0483 
765 C 1 79.1808 69.1435 36.3969 
538 C 1 79.1602 69.0688 32.6795 
756 C 1 79.8572 69.7514 39.0999 
766 C 1 80.2974 70.0091 36.6142 
767 C 1 80.4908 70.4212 37.9756 
773 C 1 79.6069 69.4153 33.977 
774 C 1 80.5865 70.3941 34.2368 
775 C 1 80.8792 70.7424 35.5812 
551 C 1 81.2438 71.1061 33.1938 
757 C 1 80.2432 70.0234 40.4217 
768 C 1 81.3537 71.5306 38.2471 
769 C 1 81.6043 71.9119 39.5854 
776 C 1 81.5425 71.9966 35.8071 
777 C 1 81.7326 72.4337 37.2163 
552 C 1 81.821 72.3924 33.45 
566 C 1 82.2852 74.7149 32.6713 
770 C 1 81.9764 73.2249 39.8745 
778 C 1 82.0668 73.7433 37.4918 
779 C 1 82.1801 74.1795 38.8183 
781 C 1 81.9595 72.8602 34.7797 
782 C 1 82.2168 74.2285 35.0766 
783 C 1 82.1421 74.6624 36.4528 
565 C 1 82.0737 73.3015 32.381 
696 C 1 67.721 75.0632 35.9363 
467 C 1 67.7618 75.9263 33.1535 
682 C 1 68.139 77.3152 36.7205 
683 C 1 67.9246 76.7947 38.048 
684 C 1 67.7177 75.3982 38.3087 
694 C 1 68.0428 76.7591 34.273 
695 C 1 67.9285 76.4002 35.6354 
672 C 1 68.216 77.6984 39.1476 
693 C 1 68.5929 78.078 33.9936 
454 C 1 68.7265 78.5909 32.6643 
681 C 1 68.6887 78.5826 36.4383 
680 C 1 69.0424 78.8976 35.0647 
671 C 1 68.9985 78.8881 38.8016 
670 C 1 69.2611 79.3631 37.4839 
440 C 1 70.2534 80.3411 33.4915 
657 C 1 70.5283 80.621 39.6663 
658 C 1 69.5304 79.6426 39.9048 
668 C 1 70.5559 80.7604 35.8698 
669 C 1 70.1753 80.4035 37.243 
679 C 1 69.896 80.0437 34.8016 
656 C 1 70.884 80.9749 38.3408 
439 C 1 71.339 81.2365 33.1482 
453 C 1 69.5306 79.739 32.4042 
402 C 1 80.1312 80.5886 32.6172 
614 C 1 80.6677 79.7385 37.448 
615 C 1 80.3623 80.1284 38.7421 
624 C 1 80.455 80.219 35.0419 
625 C 1 80.0376 80.3851 36.352 
637 C 1 79.7935 80.8093 33.9728 
602 C 1 80.9067 79.4243 39.8383 
616 C 1 79.2546 81.0015 39.0028 
626 C 1 78.8681 81.1233 36.6292 
401 C 1 81.1236 79.5955 32.3599 
623 C 1 81.3521 79.1627 34.791 
613 C 1 81.4966 78.6377 37.2144 
396 C 1 81.5561 78.7477 33.3806 
609 C 1 82.3353 75.1537 34.0066 
601 C 1 81.5237 78.242 39.5824 
612 C 1 81.6745 78.2885 35.8708 
600 C 1 81.9298 77.8027 38.303 
395 C 1 82.0389 77.4615 33.19 
599 C 1 82.3106 76.4816 38.0599 
610 C 1 82.2527 76.5642 34.2595 
611 C 1 82.1378 76.9808 35.5954 
780 C 1 82.3386 75.5602 39.1312 
784 C 1 82.2654 76.0833 36.7209 
593 C 1 82.2004 76.0283 40.4252 
667 C 1 71.6816 81.5816 35.6158 
666 C 1 72.1097 81.7783 34.3071 
655 C 1 72.1289 81.6644 38.0662 
426 C 1 73.9676 82.2623 32.6683 
643 C 1 74.4242 82.2331 38.8095 
644 C 1 73.056 81.9129 39.0979 
652 C 1 74.4314 82.1744 35.0878 
653 C 1 73.9667 82.0855 36.4337 
654 C 1 72.5996 81.8222 36.7132 
665 C 1 73.4889 82.1982 34.0138 
642 C 1 74.924 82.1885 37.4879 
425 C 1 75.3548 82.2932 32.4129 
638 C 1 78.5477 81.5654 34.2811 
627 C 1 78.4304 81.3926 37.9146 
639 C 1 78.0903 81.5618 35.5626 
630 C 1 75.342 82.2477 39.9071 
411 C 1 77.6844 81.9426 33.1784 
412 C 1 76.321 82.1037 33.4138 
628 C 1 77.2034 81.9575 38.2046 
629 C 1 76.72 82.0961 39.5432 
640 C 1 76.7373 81.996 35.8276 
641 C 1 76.2888 82.0724 37.1777 
651 C 1 75.7981 82.0475 34.7358 
617 C 1 78.9287 81.2636 40.3791 
706 C 1 72.9022 67.9979 43.9175 
716 C 1 73.2943 67.7964 41.5032 
717 C 1 73.8364 67.886 42.8385 
932 C 1 72.5352 68.1464 46.294 
933 C 1 72.9192 67.9536 47.6514 
934 C 1 74.2724 67.7191 47.9324 
945 C 1 73.3433 67.8671 45.2373 
715 C 1 71.9555 68.2136 41.2629 
946 C 1 74.7428 67.6598 45.504 
705 C 1 71.5878 68.4519 43.6735 
704 C 1 71.1837 68.7012 42.3525 
931 C 1 71.2006 68.6672 46.0689 
949 C 1 76.9495 68.0912 48.4572 
947 C 1 75.1949 67.6818 46.8498 
718 C 1 75.2455 67.7965 43.0858 
719 C 1 75.6669 67.8042 44.4417 
720 C 1 77.0418 68.1061 44.7033 
730 C 1 75.7563 67.8339 40.7063 
731 C 1 76.2238 67.9293 42.0255 
732 C 1 77.5636 68.2325 42.3098 
948 C 1 76.5398 67.9656 47.1171 
959 C 1 77.4663 68.2656 46.1107 
733 C 1 77.9441 68.4192 43.6893 
743 C 1 78.4573 68.5787 41.2296 
664 C 1 67.672 74.5752 44.7842 
676 C 1 67.5913 74.0685 42.3485 
677 C 1 67.7565 73.6033 43.6973 
687 C 1 67.9647 73.1875 41.2745 
903 C 1 67.7267 74.0809 46.0693 
904 C 1 68.1485 72.7684 46.3336 
905 C 1 68.291 72.3379 47.6548 
678 C 1 68.2769 72.3428 43.9096 
917 C 1 68.5494 71.9603 45.2494 
688 C 1 68.5486 71.8962 41.5446 
689 C 1 68.7389 71.5005 42.8833 
893 C 1 67.7012 74.5424 48.5311 
921 C 1 70.7524 68.9682 48.454 
4683 O 3 71.1414 73.6964 48.146 
701 C 1 68.9642 71.0346 40.4666 
906 C 1 68.9772 71.1009 47.9299 
692 C 1 70.7798 68.9318 44.7536 
918 C 1 69.278 70.776 45.5235 
690 C 1 69.4625 70.2969 43.1262 
691 C 1 69.7975 69.9201 44.4668 
702 C 1 69.8415 69.9248 40.7104 
703 C 1 70.0453 69.5406 42.0842 
919 C 1 69.5297 70.3782 46.8805 
920 C 1 70.4542 69.2688 47.1272 
4890 O 3 73.5854 74.5231 47.0675 
4891 H 2 73.9786 73.7526 46.6577 
4684 H 2 71.9965 73.7754 47.7231 
4563 O 3 74.6358 71.9392 46.8027 
4892 H 2 74.0883 74.6501 47.8719 
4564 H 2 74.1908 71.2132 47.2399 
4685 H 2 70.8749 72.7919 47.9812 
960 C 1 78.7696 68.8412 46.3084 
4588 H 2 77.8299 72.8838 46.9878 
4565 H 2 75.5352 71.9001 47.1279 
734 C 1 79.1575 69.0992 43.8924 
961 C 1 79.0811 69.1521 47.6633 
744 C 1 79.608 69.3637 41.4914 
745 C 1 79.9512 69.6503 42.8526 
962 C 1 80.1049 70.1022 47.9307 
969 C 1 79.5169 69.3511 45.2656 
970 C 1 80.5626 70.3351 45.5515 
971 C 1 80.8816 70.7013 46.8849 
746 C 1 80.885 70.6697 43.0989 
747 C 1 81.1857 71.0196 44.4472 
758 C 1 81.2175 71.103 40.6779 
4962 O 3 78.6996 74.6377 47.3689 
4963 H 2 78.8243 74.8732 48.2883 
4587 O 3 77.2648 72.2267 47.3942 
4589 H 2 77.3617 72.3754 48.3348 
973 C 1 81.65 72.42 48.5007 
759 C 1 81.3588 71.468 42.028 
972 C 1 81.5396 71.9521 47.118 
748 C 1 81.7491 72.316 44.7436 
760 C 1 81.7497 72.7589 42.2775 
761 C 1 81.9401 73.2083 43.6671 
762 C 1 82.1701 74.6068 43.8913 
771 C 1 82.0136 73.7028 41.253 
977 C 1 81.7813 72.834 46.0425 
978 C 1 82.0982 74.2283 46.3214 
979 C 1 82.1889 74.682 47.6492 
892 C 1 67.6434 75.0066 47.1343 
673 C 1 67.9841 77.2458 40.5225 
662 C 1 67.6954 76.3835 43.1319 
663 C 1 67.6521 75.9371 44.5097 
674 C 1 67.6182 75.919 40.6699 
675 C 1 67.415 75.4351 42.0276 
878 C 1 68.1412 77.2923 48.0118 
890 C 1 67.9423 76.8851 45.5496 
891 C 1 67.8212 76.4132 46.9075 
661 C 1 68.2739 77.6859 42.9012 
889 C 1 68.4399 78.1735 45.2746 
660 C 1 68.4484 78.099 41.5602 
650 C 1 68.68 78.5341 43.9344 
877 C 1 68.7082 78.5213 47.6796 
5039 H 2 73.6733 78.3297 47.4607 
4931 H 2 71.9182 77.0777 45.7725 
876 C 1 68.9192 78.9025 46.3323 
4621 H 2 74.4701 77.2108 45.629 
4929 O 3 72.6556 77.1334 46.3803 
659 C 1 69.2207 79.2716 41.266 
636 C 1 70.2353 80.3019 44.7578 
648 C 1 69.806 79.994 42.3312 
649 C 1 69.545 79.6525 43.6965 
864 C 1 70.518 80.5842 47.1445 
875 C 1 69.8676 79.9453 46.0828 
647 C 1 70.9093 80.7482 42.0528 
4930 H 2 72.8117 76.2289 46.6517 
5037 O 3 74.248 78.7377 48.1084 
646 C 1 71.3473 81.0475 40.7286 
635 C 1 71.4035 81.0714 44.4485 
863 C 1 71.7127 81.2393 46.8927 
865 C 1 70.1696 80.2838 48.4848 
4964 H 2 78.2653 75.3985 46.9831 
5038 H 2 75.1124 78.736 47.6972 
4666 H 2 76.3637 76.0259 48.4513 
4620 O 3 75.4107 77.385 45.5941 
4622 H 2 75.6471 77.2436 44.6774 
4667 H 2 76.4364 76.926 47.2362 
4665 O 3 76.8718 76.741 48.0684 
598 C 1 79.973 80.5708 43.8724 
603 C 1 80.6458 79.7955 41.1458 
604 C 1 79.7133 80.8309 41.4486 
820 C 1 80.4461 80.3647 46.2544 
821 C 1 80.0959 80.6187 47.664 
833 C 1 79.636 80.8975 45.1944 
597 C 1 80.9068 79.5314 43.5941 
605 C 1 79.2873 81.1472 42.7988 
596 C 1 81.1621 79.0546 42.3054 
772 C 1 82.2017 75.055 41.4937 
805 C 1 82.0993 75.1326 45.1887 
819 C 1 81.2645 79.2485 45.9476 
592 C 1 81.4236 78.7833 44.6552 
808 C 1 81.6797 78.3582 47.0336 
595 C 1 81.7249 77.7953 42.0341 
589 C 1 82.0759 75.5243 42.8216 
590 C 1 81.9263 76.8644 43.0732 
591 C 1 81.8409 77.4083 44.3744 
594 C 1 81.8621 77.3861 40.6877 
806 C 1 82.0035 76.5693 45.5029 
807 C 1 82.0255 77.003 46.8454 
980 C 1 82.2429 76.0726 47.9427 
809 C 1 81.5588 78.7757 48.3985 
645 C 1 72.6097 81.661 40.4638 
634 C 1 71.6767 81.3856 43.0896 
631 C 1 74.8363 82.0951 41.1839 
633 C 1 72.9519 81.9694 42.7938 
862 C 1 72.1795 81.556 45.5669 
632 C 1 73.4406 81.9803 41.4909 
622 C 1 73.8862 82.2215 43.9028 
850 C 1 72.5517 81.6439 47.9926 
848 C 1 74.3511 82.1587 46.3534 
849 C 1 73.9412 82.0409 47.727 
861 C 1 73.452 82.0931 45.2911 
618 C 1 77.5955 81.8482 40.6569 
847 C 1 75.7392 82.3134 46.1107 
608 C 1 76.1945 82.2883 44.7256 
619 C 1 77.1049 81.9807 42.0366 
621 C 1 75.2633 82.2795 43.5917 
620 C 1 75.7537 82.1093 42.2781 
607 C 1 77.5725 82.0058 44.4729 
606 C 1 78.0746 81.7776 43.1043 
822 C 1 78.9714 81.4519 47.9393 
835 C 1 78.0782 81.8891 46.8739 
834 C 1 78.5002 81.715 45.5045 
836 C 1 76.736 82.287 47.1736 
837 C 1 76.2606 82.188 48.4837 
902 C 1 72.7863 67.8339 55.1242 
911 C 1 72.0012 68.2388 52.5056 
912 C 1 73.3195 67.6955 52.7275 
913 C 1 73.7197 67.61 54.0671 
923 C 1 72.4704 68.0745 50.0419 
924 C 1 73.7644 67.6449 50.3119 
925 C 1 74.2066 67.6225 51.6522 
922 C 1 71.9468 68.2685 48.678 
935 C 1 74.6682 67.5121 49.246 
901 C 1 71.5716 68.4593 54.8711 
910 C 1 71.595 68.4209 51.1126 
900 C 1 71.2404 68.7307 53.5713 
1141 C 1 73.2445 67.7763 56.4645 
914 C 1 75.1218 67.6149 54.3422 
915 C 1 75.6008 67.6153 55.6318 
916 C 1 76.9912 68.0062 55.9332 
926 C 1 75.5654 67.6937 51.955 
927 C 1 76.048 67.7357 53.3015 
928 C 1 77.3727 68.1337 53.4928 
929 C 1 77.8527 68.3931 54.8089 
936 C 1 75.9994 67.7953 49.5141 
937 C 1 76.4737 67.9241 50.8645 
938 C 1 77.8279 68.4257 51.1285 
950 C 1 78.1952 68.644 48.7109 
939 C 1 78.2663 68.585 52.4563 
860 C 1 67.6857 74.5288 55.9688 
872 C 1 67.6852 74.0809 53.5691 
873 C 1 67.7841 73.6539 54.8986 
874 C 1 68.2022 72.2874 55.131 
882 C 1 67.8672 73.644 51.1573 
883 C 1 67.9926 73.1786 52.4909 
894 C 1 67.9339 73.1848 48.7602 
895 C 1 68.0223 72.708 50.092 
884 C 1 68.4474 71.7979 52.7516 
896 C 1 68.6764 71.4789 50.3574 
1113 C 1 68.4786 71.8795 56.4831 
885 C 1 68.6322 71.4536 54.1005 
897 C 1 68.9479 71.0506 51.6772 