ITEM: TIMESTEP
2337880
ITEM: NUMBER OF ATOMS
5816
ITEM: BOX BOUNDS pp pp pp
0.0000000000000000e+00 1.5000000000000000e+02
0.0000000000000000e+00 1.5000000000000000e+02
0.0000000000000000e+00 2.5886599999999999e+02
ITEM: ATOMS id element type x y z 
128 C 1 73.3781 68.0447 7.73667 
138 C 1 72.073 68.3497 3.77982 
139 C 1 72.5701 68.2888 5.07764 
140 C 1 73.9041 67.8632 5.35831 
141 C 1 74.3299 67.9394 6.65989 
148 C 1 72.4275 68.1948 1.30528 
149 C 1 72.8786 68.0166 2.64243 
150 C 1 74.3316 67.6844 2.9156 
151 C 1 74.7663 67.6807 4.29929 
161 C 1 73.3837 67.9124 0.268322 
162 C 1 74.7602 67.6723 0.496466 
127 C 1 72.0545 68.4848 7.46316 
126 C 1 71.6444 68.6177 6.11259 
147 C 1 71.1263 68.7269 1.06102 
142 C 1 75.6723 67.9423 7.00695 
152 C 1 76.1268 67.7991 4.58693 
153 C 1 76.6065 67.9734 5.89999 
163 C 1 75.2412 67.709 1.82643 
164 C 1 76.6249 67.8429 2.13937 
165 C 1 77.0347 67.9384 3.47285 
175 C 1 77.5653 68.0909 1.05731 
154 C 1 77.8822 68.4342 6.13769 
155 C 1 78.2706 68.6565 7.46957 
166 C 1 78.3232 68.5668 3.7285 
176 C 1 78.8334 68.6691 1.34209 
98 C 1 67.9178 73.5985 6.13652 
99 C 1 68.0474 73.1896 7.4463 
109 C 1 67.7467 74.5246 3.49297 
110 C 1 68.0038 73.1319 3.75196 
111 C 1 68.082 72.6941 5.10902 
119 C 1 67.8858 74.0884 1.06227 
120 C 1 68.181 72.7247 1.35824 
121 C 1 68.2854 72.3001 2.70498 
133 C 1 68.4512 71.8478 0.268061 
100 C 1 68.3801 71.8303 7.6568 
97 C 1 67.788 74.9972 5.90904 
112 C 1 68.5454 71.3858 5.3676 
108 C 1 67.7806 74.9512 2.17517 
113 C 1 68.7946 70.9462 6.66832 
122 C 1 68.8973 71.002 2.93401 
137 C 1 70.8775 69.0738 3.45054 
114 C 1 69.6956 69.9336 6.99652 
123 C 1 69.1633 70.5812 4.25642 
124 C 1 70.1006 69.5918 4.51961 
125 C 1 70.4491 69.2922 5.88354 
134 C 1 69.1626 70.6944 0.516336 
135 C 1 69.3869 70.2259 1.88258 
136 C 1 70.4443 69.2551 2.12706 
167 C 1 78.7468 68.7881 5.01095 
177 C 1 79.1531 69.0577 2.67264 
156 C 1 79.5095 69.3541 7.75332 
168 C 1 79.8779 69.627 5.35476 
169 C 1 80.1472 70.0542 6.71643 
178 C 1 80.2765 69.8764 2.95767 
179 C 1 80.6633 70.2386 4.28109 
185 C 1 79.5369 69.3124 0.267468 
186 C 1 80.5314 70.2803 0.53073 
187 C 1 80.836 70.5767 1.87234 
170 C 1 81.1291 71.0214 6.9286 
180 C 1 81.3879 71.3754 4.61493 
181 C 1 81.5345 71.8338 5.87783 
188 C 1 81.5725 71.84 2.15387 
182 C 1 82.0081 73.1272 6.16609 
183 C 1 82.0133 73.6255 7.44825 
189 C 1 81.7192 72.2236 3.53777 
190 C 1 82.0714 73.6088 3.72674 
191 C 1 82.2335 74.1038 5.04512 
193 C 1 81.8092 72.7344 1.05693 
194 C 1 82.2205 74.0753 1.33614 
195 C 1 82.1375 74.5562 2.65081 
84 C 1 68.3558 77.7346 5.29467 
85 C 1 68.2445 77.2801 6.60969 
86 C 1 67.896 75.9374 6.96043 
94 C 1 68.1835 77.2855 2.95343 
95 C 1 68.0115 76.8427 4.27114 
96 C 1 67.7489 75.5113 4.55459 
105 C 1 68.4455 78.1564 0.268421 
106 C 1 67.9449 76.8655 0.560534 
107 C 1 67.9093 76.3723 1.87107 
72 C 1 68.5113 78.1655 7.71308 
93 C 1 68.6992 78.5409 2.6797 
83 C 1 68.9526 78.981 5.08756 
92 C 1 68.9497 78.9182 1.36645 
69 C 1 70.576 80.6402 5.92976 
70 C 1 69.4416 79.8259 6.14676 
71 C 1 69.1842 79.4111 7.45574 
80 C 1 70.5146 80.6914 2.17313 
81 C 1 70.2471 80.4164 3.51553 
82 C 1 69.2414 79.3594 3.69109 
91 C 1 69.8673 79.981 1.09593 
68 C 1 70.9715 80.9796 4.62149 
14 C 1 80.779 79.4081 6.18733 
15 C 1 80.4958 79.7978 7.52121 
16 C 1 79.498 80.7563 7.74173 
26 C 1 80.4805 79.7517 3.79528 
27 C 1 80.2331 80.1071 5.12045 
36 C 1 80.1903 80.0399 1.34059 
37 C 1 79.866 80.4959 2.67234 
49 C 1 79.5328 80.6837 0.268417 
35 C 1 81.1076 78.9833 1.05453 
28 C 1 79.1481 80.992 5.35275 
25 C 1 81.1335 78.5649 3.49787 
184 C 1 82.1484 75.0104 7.78006 
13 C 1 81.5149 78.2575 5.87955 
5 C 1 82.0666 75.926 6.69414 
6 C 1 81.8584 77.3534 6.96458 
11 C 1 82.1302 76.4183 4.29746 
12 C 1 81.5967 77.7033 4.53437 
21 C 1 82.2727 75.0019 0.268526 
22 C 1 82.1419 76.3915 0.536388 
23 C 1 81.9704 76.8617 1.91308 
24 C 1 81.4929 78.1615 2.17577 
192 C 1 82.2639 75.4961 5.37511 
196 C 1 82.147 75.945 2.97872 
58 C 1 71.2428 81.3132 6.95467 
79 C 1 71.6361 81.4731 1.86347 
67 C 1 72.1485 81.7407 4.30064 
44 C 1 73.3655 82.2358 7.80544 
54 C 1 74.7381 82.4814 3.7849 
55 C 1 74.2858 82.448 5.17896 
56 C 1 72.9358 82.1118 5.39868 
57 C 1 72.5186 81.9135 6.70494 
64 C 1 74.3446 82.3375 1.3837 
65 C 1 73.8589 82.2624 2.71256 
66 C 1 72.5635 81.8394 2.93279 
77 C 1 73.3822 82.0902 0.267728 
78 C 1 72.0579 81.6485 0.535873 
43 C 1 74.7606 82.3992 7.51751 
29 C 1 78.7601 81.2901 6.68125 
38 C 1 78.7785 81.3736 3.01634 
39 C 1 78.333 81.5104 4.27777 
30 C 1 77.5348 82.0642 6.95826 
40 C 1 77.1513 82.2336 4.58818 
41 C 1 76.6536 82.33 5.89403 
42 C 1 75.2091 82.6077 6.19022 
50 C 1 78.3632 81.4456 0.536574 
51 C 1 77.9513 81.741 1.84976 
52 C 1 76.6435 82.1913 2.14772 
53 C 1 76.1769 82.3014 3.50665 
63 C 1 75.7608 82.3636 1.02168 
118 C 1 72.9027 68.0085 10.1677 
129 C 1 73.8196 67.8762 9.10148 
344 C 1 72.3937 68.1429 12.5412 
345 C 1 72.8001 67.9569 13.8978 
346 C 1 74.2035 67.7154 14.1794 
357 C 1 73.3549 67.9827 11.4879 
334 C 1 71.9515 68.314 14.9948 
347 C 1 74.7147 67.5996 15.5832 
358 C 1 74.7312 67.7535 11.7641 
117 C 1 71.6141 68.6403 9.87846 
343 C 1 71.154 68.7247 12.3189 
359 C 1 75.167 67.5822 13.1361 
130 C 1 75.2011 67.9629 9.41221 
131 C 1 75.6724 67.7411 10.758 
132 C 1 77.07 68.0163 11.0236 
143 C 1 76.1591 68.0132 8.33943 
144 C 1 77.5094 68.2316 8.59136 
348 C 1 76.0979 67.6644 15.8391 
360 C 1 76.5271 67.8194 13.4195 
361 C 1 76.9986 68.0871 14.7654 
371 C 1 77.5103 68.1232 12.3772 
145 C 1 77.9279 68.4324 9.95235 
362 C 1 78.2903 68.5386 15.0298 
372 C 1 78.782 68.6962 12.6603 
76 C 1 67.8941 74.5838 10.8934 
88 C 1 67.904 74.1124 8.5128 
89 C 1 67.924 73.6653 9.82241 
90 C 1 68.1617 72.3249 10.1284 
305 C 1 67.7398 74.5577 14.6504 
306 C 1 68.0144 73.2489 14.9603 
315 C 1 67.7694 74.1447 12.2064 
316 C 1 68.0147 72.759 12.5551 
317 C 1 68.228 72.3382 13.9061 
329 C 1 68.3025 71.7914 11.4775 
101 C 1 68.6027 71.5059 9.05863 
116 C 1 71.2118 68.8966 8.55259 
104 C 1 70.8163 69.0314 10.9796 
318 C 1 68.7638 71.0332 14.1583 
333 C 1 70.754 68.9775 14.7282 
330 C 1 69.0357 70.5416 11.7863 
319 C 1 69.007 70.6337 15.4708 
102 C 1 69.4953 70.386 9.41265 
103 C 1 69.7823 69.9824 10.7396 
115 C 1 70.0785 69.7316 8.33342 
320 C 1 69.8807 69.4859 15.7302 
331 C 1 69.3434 70.2192 13.1712 
332 C 1 70.3722 69.2226 13.3862 
373 C 1 79.1877 68.9602 13.9751 
146 C 1 79.1459 69.1147 10.2615 
157 C 1 79.8874 69.6103 9.1428 
374 C 1 80.2952 69.8249 14.2522 
375 C 1 80.6214 70.1866 15.5734 
381 C 1 79.5566 69.2733 11.583 
382 C 1 80.6716 70.2047 11.8271 
383 C 1 80.8555 70.6022 13.2103 
158 C 1 80.9193 70.5596 9.39461 
159 C 1 81.1838 70.9379 10.7495 
171 C 1 81.4437 71.3863 8.26868 
376 C 1 81.2988 71.4197 15.8458 
384 C 1 81.5354 71.8383 13.4411 
160 C 1 81.6411 72.2992 10.9876 
172 C 1 81.8951 72.71 8.55199 
173 C 1 81.8942 73.1457 9.93945 
174 C 1 82.1528 74.5336 10.1322 
385 C 1 81.6444 72.2683 14.7743 
386 C 1 82.0705 73.6503 14.9812 
389 C 1 81.8929 72.6989 12.3618 
390 C 1 82.2764 74.0438 12.6134 
391 C 1 82.1908 74.5612 13.9124 
217 C 1 82.2954 74.9582 11.5016 
304 C 1 67.7117 75.0649 13.2575 
74 C 1 67.9706 76.4354 9.35152 
75 C 1 67.8665 76.0013 10.6947 
87 C 1 67.9141 75.4942 8.3131 
290 C 1 68.1735 77.3134 14.1274 
291 C 1 68.0162 76.867 15.5314 
292 C 1 67.7032 75.507 15.7838 
302 C 1 68.011 76.9515 11.7605 
303 C 1 67.8841 76.4473 13.055 
73 C 1 68.3299 77.755 9.06202 
301 C 1 68.5058 78.2543 11.5174 
289 C 1 68.7341 78.5944 13.8815 
62 C 1 68.763 78.6392 10.1666 
288 C 1 68.9362 79.0617 12.5504 
278 C 1 69.1985 79.3953 14.9749 
48 C 1 70.0001 80.6436 10.959 
60 C 1 69.7236 80.1993 8.54756 
61 C 1 69.5142 79.8921 9.86581 
276 C 1 70.4869 80.779 13.4314 
277 C 1 70.1148 80.4161 14.7389 
287 C 1 69.7854 80.1866 12.3002 
59 C 1 70.7608 81.2182 8.25373 
264 C 1 70.8195 80.9808 15.8124 
9 C 1 80.7087 79.3558 9.88424 
10 C 1 79.7914 80.4159 10.1791 
222 C 1 80.3366 79.7714 15.0108 
232 C 1 80.1378 80.1787 12.596 
233 C 1 79.9524 80.6049 13.9544 
245 C 1 79.4433 80.7654 11.5434 
17 C 1 79.0936 81.0091 9.05878 
8 C 1 81.0766 79.0475 8.53366 
231 C 1 80.808 78.909 12.3052 
221 C 1 80.9937 78.5271 14.7711 
4 C 1 81.1117 78.5566 10.9592 
220 C 1 81.3269 78.1311 13.4081 
208 C 1 81.3508 77.6433 15.7987 
3 C 1 81.7291 77.2522 10.72 
1 C 1 82.1114 75.5043 9.09051 
2 C 1 82.0084 76.9236 9.36375 
7 C 1 81.6473 77.7478 8.31133 
207 C 1 81.9183 76.3821 15.5865 
218 C 1 82.0102 76.3709 11.795 
219 C 1 81.8203 76.8317 13.1469 
392 C 1 82.1147 75.97 14.2539 
47 C 1 71.132 81.5171 10.7167 
275 C 1 71.6102 81.6115 13.1588 
46 C 1 71.6394 81.6717 9.3982 
263 C 1 72.0513 81.6896 15.6051 
274 C 1 71.9557 82.0287 11.8372 
262 C 1 72.4672 81.9948 14.2516 
45 C 1 72.9562 82.1923 9.13833 
34 C 1 73.8738 82.4747 10.1677 
261 C 1 73.7963 82.3677 13.9911 
260 C 1 74.3142 82.5637 12.6427 
273 C 1 73.3428 82.4763 11.5362 
250 C 1 74.7715 82.4183 15.0795 
234 C 1 78.8121 81.4302 14.2387 
246 C 1 78.3734 81.6444 11.7482 
235 C 1 78.3435 81.6123 15.533 
259 C 1 75.7474 82.5197 12.3875 
236 C 1 77.0809 82.1751 15.9091 
18 C 1 77.9362 81.7491 9.38098 
33 C 1 75.2345 82.3915 9.93549 
20 C 1 76.1799 82.4109 10.9986 
247 C 1 77.9544 81.8414 13.1477 
248 C 1 76.6317 82.3037 13.4821 
19 C 1 77.527 82.0366 10.7208 
32 C 1 75.7069 82.2938 8.59444 
249 C 1 76.1425 82.3581 14.7949 
31 C 1 77.0949 82.1853 8.30868 
314 C 1 72.7621 67.8889 21.4317 
324 C 1 73.3317 67.7847 19.0276 
325 C 1 73.7228 67.7398 20.3655 
336 C 1 73.7568 67.6998 16.6319 
337 C 1 74.2469 67.7092 17.9634 
553 C 1 73.3351 67.8099 22.7198 
540 C 1 72.4699 68.095 23.8293 
323 C 1 72.032 68.2775 18.6991 
335 C 1 72.4313 68.129 16.3069 
554 C 1 74.702 67.5726 23.0024 
322 C 1 71.5907 68.4532 17.3744 
313 C 1 71.4723 68.4064 21.1652 
312 C 1 71.2209 68.7391 19.7877 
326 C 1 75.1694 67.6296 20.6093 
327 C 1 75.6369 67.66 21.9327 
328 C 1 76.94 67.982 22.2601 
338 C 1 75.6221 67.6883 18.185 
339 C 1 76.0699 67.701 19.5325 
340 C 1 77.3932 68.1378 19.8196 
349 C 1 76.5841 67.7273 17.1307 
567 C 1 77.3415 68.1508 23.5879 
350 C 1 77.9467 68.1292 17.4641 
341 C 1 77.8082 68.2676 21.1994 
351 C 1 78.3719 68.3515 18.8367 
568 C 1 78.591 68.7254 23.8147 
363 C 1 78.7015 68.7154 16.3801 
307 C 1 68.1881 72.7729 16.295 
272 C 1 67.6752 74.6749 22.2687 
284 C 1 67.7935 74.1732 19.8718 
285 C 1 67.936 73.7418 21.1959 
294 C 1 67.9997 73.6719 17.395 
295 C 1 68.1591 73.2727 18.7811 
511 C 1 67.7014 74.1891 23.5708 
512 C 1 68.2394 72.8866 23.8181 
286 C 1 68.4694 72.4213 21.3763 
525 C 1 68.7445 72.0903 22.7112 
296 C 1 68.5645 71.9482 19.0094 
308 C 1 68.7127 71.5038 16.5828 
539 C 1 71.2481 68.7828 23.6348 
297 C 1 68.8529 71.5406 20.3363 
309 C 1 69.0857 71.1735 17.8977 
300 C 1 70.7611 68.9588 22.2682 
526 C 1 69.3522 70.8288 23.0376 
298 C 1 69.6541 70.3936 20.6516 
299 C 1 69.8702 70.0236 21.9907 
310 C 1 69.8708 70.0547 18.1747 
311 C 1 70.2633 69.741 19.5271 
321 C 1 70.4129 69.2845 17.1203 
342 C 1 79.0459 68.941 21.4199 
352 C 1 79.551 69.124 19.0333 
353 C 1 79.7992 69.5419 20.3723 
364 C 1 79.7854 69.5947 16.6128 
365 C 1 80.0632 69.9808 17.9713 
577 C 1 79.3681 69.3543 22.7248 
578 C 1 80.3538 70.2915 22.9977 
354 C 1 80.6813 70.6798 20.6068 
366 C 1 80.9986 70.9985 18.2142 
355 C 1 80.9391 71.0433 21.9165 
367 C 1 81.2293 71.4267 19.5748 
377 C 1 81.4075 71.9167 17.1714 
356 C 1 81.5981 72.2611 22.2395 
368 C 1 81.8075 72.7069 19.8484 
369 C 1 81.9395 73.1469 21.1755 
370 C 1 82.0691 74.5238 21.4768 
378 C 1 81.8488 73.2303 17.446 
379 C 1 81.887 73.6021 18.7813 
585 C 1 81.7918 72.6716 23.6279 
586 C 1 82.0496 74.0633 23.8204 
387 C 1 82.1326 74.0898 16.3354 
413 C 1 82.0393 74.9806 22.7581 
293 C 1 67.7229 75.0711 17.1493 
270 C 1 67.7212 76.5321 20.6151 
271 C 1 67.6806 76.1029 22.0039 
281 C 1 67.9649 77.4026 17.9549 
282 C 1 67.6787 75.9976 18.1651 
283 C 1 67.584 75.6042 19.5332 
498 C 1 67.8763 77.0039 23.0846 
269 C 1 68.1245 77.9263 20.3967 
280 C 1 68.2716 77.779 16.5944 
497 C 1 68.3059 78.3346 22.8011 
268 C 1 68.2989 78.2793 19.0192 
258 C 1 68.6285 78.7185 21.4064 
279 C 1 68.8785 79.0337 16.2909 
484 C 1 68.8311 79.1038 23.8741 
267 C 1 69.1092 79.4753 18.7327 
244 C 1 70.0752 80.4434 22.2413 
256 C 1 69.674 80.3217 19.7845 
257 C 1 69.4277 79.9118 21.1581 
265 C 1 70.3768 80.7483 17.1297 
266 C 1 69.361 79.8387 17.4021 
483 C 1 69.7362 80.1121 23.5248 
255 C 1 70.7961 81.1272 19.5465 
206 C 1 79.7811 80.4411 21.4002 
211 C 1 80.3646 79.7717 18.7505 
212 C 1 79.4606 80.8057 19.0782 
428 C 1 80.2386 80.1223 23.8858 
441 C 1 79.5249 80.8187 22.8318 
210 C 1 80.6547 79.3995 17.42 
205 C 1 80.6228 79.3403 21.1492 
223 C 1 80.0293 80.1636 16.3548 
224 C 1 78.9938 81.05 16.5912 
213 C 1 79.0971 81.1055 20.3859 
427 C 1 80.9825 78.9531 23.5881 
204 C 1 80.8328 78.918 19.7842 
200 C 1 81.1356 78.5565 22.2624 
209 C 1 81.2283 78.1206 17.1274 
380 C 1 81.9594 75.002 19.0495 
203 C 1 81.4895 77.6723 19.5241 
197 C 1 81.9228 75.4191 20.3828 
198 C 1 81.744 76.838 20.6284 
199 C 1 81.6901 77.289 21.9719 
201 C 1 81.8691 75.8902 17.9616 
202 C 1 81.6229 77.2861 18.1974 
388 C 1 82.0851 75.4854 16.6286 
414 C 1 81.9725 76.3636 23.0296 
254 C 1 71.1746 81.2966 18.1497 
243 C 1 71.1489 81.3258 22.0035 
242 C 1 71.5139 81.6201 20.6316 
470 C 1 71.869 81.8481 23.0608 
253 C 1 72.4392 81.8831 17.9605 
230 C 1 73.7405 82.324 21.4563 
240 C 1 73.2756 82.3786 19.0627 
241 C 1 72.8255 82.3068 20.3966 
252 C 1 72.9525 81.9606 16.6287 
456 C 1 74.1578 82.3568 23.8136 
469 C 1 73.2371 82.2036 22.8011 
251 C 1 74.2725 82.3301 16.3695 
239 C 1 74.6749 82.5854 18.7808 
225 C 1 78.707 81.3716 17.9962 
442 C 1 78.3528 81.6272 23.0722 
238 C 1 75.1886 82.5291 17.4468 
229 C 1 75.114 82.3403 21.1994 
214 C 1 77.8261 81.7659 20.7034 
215 C 1 77.4276 81.9208 22.0469 
216 C 1 76.0352 82.231 22.317 
226 C 1 77.4384 82.0679 18.3272 
227 C 1 76.9157 82.1636 19.6169 
228 C 1 75.5779 82.3453 19.8657 
237 C 1 76.5885 82.3558 17.1941 
455 C 1 75.5302 82.2672 23.5943 
520 C 1 73.3149 67.7139 30.3421 
521 C 1 73.8657 67.711 31.6151 
531 C 1 72.4717 68.0899 27.6436 
532 C 1 73.813 67.6395 27.8862 
533 C 1 74.2215 67.5907 29.1923 
541 C 1 72.913 67.9302 25.1919 
542 C 1 74.2331 67.5121 25.4689 
530 C 1 72.1254 68.3548 26.2732 
519 C 1 72.0149 68.2329 30.0072 
543 C 1 74.7428 67.5488 26.7733 
518 C 1 71.6161 68.4095 28.6836 
508 C 1 71.1946 68.7485 31.0324 
522 C 1 75.2332 67.6409 31.9456 
555 C 1 75.187 67.5427 24.3492 
534 C 1 75.6104 67.6972 29.5039 
535 C 1 76.1327 67.7151 30.8372 
536 C 1 77.4759 68.1225 31.0819 
544 C 1 76.1522 67.6817 27.041 
545 C 1 76.563 67.7396 28.427 
556 C 1 76.5648 67.8128 24.669 
557 C 1 77.0337 67.8371 25.9615 
546 C 1 77.9329 68.1707 28.6324 
547 C 1 78.3016 68.528 29.9736 
558 C 1 78.3634 68.3379 26.2349 
559 C 1 78.7892 68.5437 27.5731 
480 C 1 67.8795 74.1387 31.0668 
490 C 1 67.9664 73.7071 28.6549 
491 C 1 68.1057 73.2199 30.0288 
501 C 1 67.8087 74.6553 26.0017 
502 C 1 68.0483 73.2647 26.2239 
503 C 1 68.2131 72.7905 27.5694 
513 C 1 68.2656 72.3321 25.1802 
492 C 1 68.4404 71.8973 30.2929 
493 C 1 68.6899 71.5351 31.6344 
504 C 1 68.7915 71.5213 27.8871 
505 C 1 68.8998 70.9812 29.2113 
514 C 1 68.93 71.1028 25.4489 
529 C 1 70.9637 69.1447 26.0684 
515 C 1 69.3317 70.7446 26.7906 
527 C 1 69.6075 70.4429 24.3731 
494 C 1 69.3318 70.2716 31.9186 
506 C 1 69.7932 69.9088 29.5481 
507 C 1 70.0416 69.5181 30.8868 
516 C 1 70.1982 69.6804 27.0888 
517 C 1 70.5052 69.2957 28.4411 
528 C 1 70.5981 69.5082 24.6978 
569 C 1 79.0764 68.8994 25.1073 
579 C 1 80.7195 70.571 24.3361 
548 C 1 79.4839 69.2968 30.2068 
549 C 1 79.8529 69.5916 31.5668 
560 C 1 79.8282 69.4684 27.8282 
561 C 1 80.1857 69.8925 29.1365 
570 C 1 80.1428 69.7932 25.4042 
571 C 1 80.4183 70.2197 26.7653 
550 C 1 80.7098 70.6756 31.8301 
562 C 1 80.9939 71.0222 29.3931 
572 C 1 81.1094 71.4762 27.0425 
563 C 1 81.2191 71.4779 30.7581 
580 C 1 81.3679 71.8096 24.6432 
573 C 1 81.3433 71.9158 28.3707 
581 C 1 81.483 72.3037 26.0027 
564 C 1 81.9041 72.776 31.0462 
574 C 1 81.8333 73.2241 28.6469 
575 C 1 82.0304 73.6868 29.993 
582 C 1 81.9597 73.6386 26.2129 
583 C 1 82.1731 74.1298 27.5373 
587 C 1 82.1312 74.5339 25.15 
500 C 1 67.6231 75.168 24.6923 
489 C 1 67.7771 75.098 28.4105 
499 C 1 67.69 76.5742 24.4245 
466 C 1 67.8733 76.5324 31.9026 
477 C 1 68.1013 77.4235 29.2526 
478 C 1 67.8268 76.0156 29.4219 
479 C 1 67.8114 75.5153 30.8225 
486 C 1 67.9987 77.4788 25.5053 
487 C 1 67.9383 76.9859 26.822 
488 C 1 67.7504 75.542 27.0586 
476 C 1 68.2016 77.8854 27.8756 
465 C 1 68.2186 77.8674 31.6653 
464 C 1 68.3647 78.2536 30.3591 
485 C 1 68.5698 78.7403 25.2143 
475 C 1 68.763 79.1385 27.5567 
463 C 1 69.0627 79.4362 30.0101 
474 C 1 68.9232 79.6543 26.2384 
452 C 1 69.7252 80.2551 30.9847 
462 C 1 69.3892 79.8212 28.6731 
472 C 1 70.2946 80.8855 24.6399 
473 C 1 69.9017 80.6289 26.0074 
461 C 1 70.4408 80.6995 28.3742 
451 C 1 70.7955 81.1689 30.7835 
460 C 1 70.7461 81.06 27.0646 
407 C 1 80.437 79.7393 30.0212 
408 C 1 79.4186 80.6902 30.2963 
418 C 1 80.4612 79.7764 26.2222 
419 C 1 80.2174 80.2154 27.5433 
429 C 1 79.8692 80.4955 25.1941 
406 C 1 80.763 79.4012 28.6442 
420 C 1 79.111 81.0965 27.8338 
409 C 1 79.0443 80.9328 31.6429 
400 C 1 81.1102 79.0425 31.0452 
421 C 1 78.7575 81.2465 29.1858 
430 C 1 78.7276 81.207 25.4349 
417 C 1 81.1595 78.5725 26.0156 
576 C 1 82.1514 75.0432 30.2253 
416 C 1 81.3971 78.1159 24.6767 
405 C 1 81.3679 78.1453 28.3509 
415 C 1 81.9276 76.8647 24.3677 
404 C 1 81.5789 77.673 27.0255 
399 C 1 81.8331 77.8236 30.7685 
393 C 1 82.2854 75.4819 31.5778 
394 C 1 82.097 76.8795 31.8535 
397 C 1 82.1913 75.9911 29.1523 
398 C 1 81.9179 77.3427 29.4379 
403 C 1 82.1813 76.438 26.7623 
584 C 1 82.3336 75.502 27.8274 
588 C 1 82.1374 75.9215 25.4043 
450 C 1 71.2008 81.3393 29.4346 
471 C 1 71.435 81.6898 24.4103 
438 C 1 71.4631 81.6298 31.9066 
459 C 1 71.9519 81.7545 26.7705 
458 C 1 72.3714 81.8992 25.4563 
449 C 1 72.4596 81.9396 29.2009 
448 C 1 72.8057 82.1324 27.88 
437 C 1 72.8646 82.0156 31.6211 
436 C 1 73.3453 82.0564 30.2915 
457 C 1 73.6578 82.289 25.1457 
447 C 1 74.1848 82.3624 27.6429 
446 C 1 74.5777 82.3509 26.1796 
435 C 1 74.76 82.2621 30.0358 
424 C 1 75.6632 82.2058 31.1189 
410 C 1 77.9167 81.6993 31.9041 
434 C 1 75.1394 82.3114 28.6609 
433 C 1 76.5574 82.1232 28.3342 
445 C 1 75.9965 82.1627 25.9675 
444 C 1 76.4276 82.1037 24.6307 
431 C 1 78.3366 81.5118 26.7449 
423 C 1 77.0377 82.007 30.805 
443 C 1 77.8146 81.673 24.3589 
432 C 1 76.9988 81.9436 26.9671 
422 C 1 77.4767 81.8728 29.4644 
510 C 1 72.9357 68.0692 32.7002 
727 C 1 72.5533 68.4229 38.9129 
728 C 1 73.9017 67.972 39.1975 
737 C 1 73.0595 68.3901 36.4494 
738 C 1 74.3479 68.0031 36.7266 
749 C 1 73.3779 68.056 34.0191 
736 C 1 72.5779 68.4539 35.1033 
726 C 1 72.1907 68.6621 37.5431 
750 C 1 74.789 67.8059 34.2948 
739 C 1 74.7895 67.8103 38.0997 
714 C 1 71.5853 68.5764 39.9256 
509 C 1 71.6553 68.5999 32.3635 
751 C 1 75.2279 67.8809 35.6351 
523 C 1 75.6743 67.7568 33.2788 
524 C 1 77.0922 67.8766 33.5093 
740 C 1 76.2013 67.9393 38.3223 
741 C 1 76.6588 68.0466 39.7189 
752 C 1 76.6258 67.9193 35.8958 
753 C 1 77.0689 68.093 37.2346 
763 C 1 77.5296 68.0347 34.8353 
742 C 1 78.0151 68.4997 39.9217 
754 C 1 78.4236 68.5555 37.4945 
764 C 1 78.8242 68.6765 35.0777 
537 C 1 77.9418 68.2725 32.3966 
468 C 1 67.7578 74.6663 33.5181 
686 C 1 67.9146 73.7109 39.9537 
697 C 1 67.6698 74.6465 37.3113 
698 C 1 68.0999 73.2995 37.5345 
699 C 1 68.2574 72.8245 38.8519 
707 C 1 67.8501 74.2085 34.8304 
708 C 1 68.1634 72.853 35.1028 
482 C 1 68.3111 72.3724 32.7149 
709 C 1 68.2856 72.421 36.4511 
700 C 1 68.678 71.4949 39.0725 
721 C 1 68.4338 71.9368 34.0355 
481 C 1 67.9294 73.6967 32.4731 
735 C 1 71.3186 68.9662 34.7739 
710 C 1 68.9571 71.1272 36.677 
725 C 1 70.92 69.1727 37.2378 
496 C 1 70.8036 69.1088 33.446 
722 C 1 69.0842 70.6708 34.2886 
711 C 1 69.2286 70.7461 38.0443 
495 C 1 69.7015 69.9568 33.2712 
712 C 1 70.1012 69.7056 38.303 
713 C 1 70.4751 69.3291 39.6152 
723 C 1 69.4381 70.2884 35.6132 
724 C 1 70.5494 69.4725 35.8394 
701 C 1 69.0035 71.1066 40.4232 
755 C 1 78.8943 68.7551 38.8236 
765 C 1 79.2348 69.0242 36.399 
538 C 1 79.1971 68.9418 32.6292 
756 C 1 80.1104 69.5806 39.1062 
766 C 1 80.2825 69.9365 36.6803 
767 C 1 80.6442 70.2481 38.0169 
773 C 1 79.6044 69.21 34.0288 
774 C 1 80.4685 70.2995 34.2843 
775 C 1 80.7343 70.6682 35.5867 
551 C 1 80.9232 71.1209 33.196 
4757 H 2 79.1991 73.8128 39.2831 
4755 O 3 78.8834 74.0277 40.1608 
768 C 1 81.3864 71.4577 38.3273 
776 C 1 81.484 71.901 35.8414 
769 C 1 81.597 71.9 39.6503 
777 C 1 81.7294 72.2935 37.1892 
552 C 1 81.5793 72.3624 33.5123 
566 C 1 82.2485 74.5936 32.6335 
770 C 1 81.9671 73.2492 39.9256 
778 C 1 82.0301 73.6596 37.4862 
779 C 1 82.0106 74.1335 38.8223 
781 C 1 81.8564 72.7699 34.8216 
782 C 1 82.2299 74.1139 35.0938 
783 C 1 82.115 74.5595 36.4225 
565 C 1 81.9352 73.2191 32.4121 
685 C 1 67.7689 75.1259 39.7013 
696 C 1 67.685 75.1206 35.9088 
467 C 1 67.8803 76.0419 33.2483 
682 C 1 68.0625 77.3779 36.7404 
683 C 1 67.938 77.0413 38.055 
684 C 1 67.6575 75.6136 38.3516 
694 C 1 67.9694 76.9975 34.301 
695 C 1 67.9105 76.474 35.6551 
672 C 1 68.2388 77.9325 39.1185 
693 C 1 68.4877 78.337 34.0806 
454 C 1 68.6437 78.715 32.7713 
681 C 1 68.6183 78.679 36.4474 
673 C 1 68.0945 77.4853 40.4229 
671 C 1 68.8884 79.1797 38.8524 
680 C 1 68.8595 79.1705 35.1347 
670 C 1 69.0871 79.5604 37.4992 
440 C 1 69.9159 80.6946 33.5863 
657 C 1 70.4417 80.9596 39.6856 
658 C 1 69.5089 79.903 39.8683 
668 C 1 70.3248 81.0618 35.9198 
669 C 1 70.0415 80.6336 37.262 
679 C 1 69.6074 80.347 34.8902 
4989 O 3 74.3562 76.9 37.8225 
453 C 1 69.4062 79.9075 32.4552 
4990 H 2 73.8917 76.1709 37.4116 
4991 H 2 73.8758 77.0637 38.6341 
4724 H 2 70.5883 75.8573 39.6395 
4722 O 3 71.4049 76.1664 40.0316 
5683 H 2 75.9696 78.3687 37.9329 
5684 H 2 77.0438 77.8685 36.9907 
5682 O 3 76.9173 78.2593 37.8553 
402 C 1 79.736 80.3294 32.6942 
614 C 1 80.3365 79.6774 37.4791 
615 C 1 80.1097 80.0431 38.7788 
624 C 1 80.0877 80.0211 35.0887 
625 C 1 79.7124 80.3611 36.4343 
637 C 1 79.4639 80.6787 33.9964 
602 C 1 80.6204 79.2897 39.8788 
616 C 1 78.9599 80.8672 39.038 
623 C 1 80.7772 78.8599 34.7968 
5308 H 2 77.626 77.789 39.5911 
5307 O 3 77.9251 77.2549 40.327 
613 C 1 81.0739 78.464 37.1836 
612 C 1 81.2104 78.0351 35.842 
401 C 1 80.696 79.2861 32.3761 
617 C 1 78.7046 81.2147 40.4073 
609 C 1 82.2721 75.0683 34.0245 
396 C 1 81.2585 78.5246 33.4638 
601 C 1 81.4056 78.1485 39.6694 
600 C 1 81.5386 77.7009 38.2912 
395 C 1 81.9988 77.3382 33.1603 
599 C 1 81.9475 76.3843 38.0018 
610 C 1 82.0783 76.423 34.3001 
611 C 1 81.8357 76.7955 35.6261 
780 C 1 81.996 75.4826 39.12 
784 C 1 82.015 75.9058 36.694 
439 C 1 71.0155 81.5097 33.2828 
656 C 1 70.739 81.2663 38.306 
667 C 1 71.4643 81.8327 35.6743 
666 C 1 71.8901 81.9352 34.3271 
655 C 1 71.9617 81.9469 38.0767 
654 C 1 72.4 82.0946 36.6998 
426 C 1 73.7272 82.1614 32.6921 
643 C 1 74.1908 82.619 38.7474 
644 C 1 72.817 82.2932 39.0967 
652 C 1 74.2449 82.3848 35.053 
653 C 1 73.7714 82.4031 36.4352 
665 C 1 73.2824 82.2035 34.0257 
642 C 1 74.7192 82.5021 37.4558 
626 C 1 78.6531 81.3212 36.7094 
630 C 1 75.1306 82.5632 39.8474 
627 C 1 78.2107 81.4977 38.0133 
638 C 1 78.3346 81.5281 34.241 
639 C 1 77.882 81.7087 35.5712 
411 C 1 77.4988 81.9928 33.2112 
412 C 1 76.1055 82.3497 33.5292 
628 C 1 76.9919 82.1513 38.3037 
629 C 1 76.5715 82.2778 39.6474 
640 C 1 76.57 82.2288 35.8766 
641 C 1 76.1075 82.326 37.2612 
651 C 1 75.6195 82.4507 34.8246 
425 C 1 75.1864 82.3304 32.4612 
729 C 1 74.3634 67.915 40.529 
706 C 1 72.9118 67.8752 43.9862 
716 C 1 73.3044 67.9317 41.5484 
717 C 1 73.7613 67.6968 42.8918 
932 C 1 72.3729 68.0267 46.369 
933 C 1 72.8658 68.0302 47.6996 
934 C 1 74.2647 67.8376 47.9867 
945 C 1 73.3051 67.7263 45.3122 
946 C 1 74.7037 67.5936 45.5099 
715 C 1 71.9666 68.2889 41.2672 
705 C 1 71.5537 68.3536 43.7592 
931 C 1 71.0389 68.5008 46.1282 
704 C 1 71.1397 68.6942 42.3597 
949 C 1 77.085 68.0994 48.4821 
718 C 1 75.1851 67.7145 43.1133 
947 C 1 75.2012 67.7237 46.867 
719 C 1 75.6701 67.62 44.4794 
720 C 1 77.0063 68.1014 44.7493 
730 C 1 75.7151 68.0137 40.8439 
731 C 1 76.1714 68.0047 42.1782 
948 C 1 76.5964 67.9006 47.2028 
959 C 1 77.4703 68.2643 46.0973 
732 C 1 77.5274 68.3916 42.3575 
733 C 1 77.9283 68.506 43.7036 
743 C 1 78.4379 68.6877 41.2379 
664 C 1 67.8611 74.6173 44.7737 
676 C 1 67.9215 74.1404 42.3473 
677 C 1 67.9488 73.6879 43.7266 
687 C 1 68.0304 73.1877 41.2753 
903 C 1 67.9423 74.1673 46.0676 
904 C 1 68.2454 72.8095 46.3261 
905 C 1 68.4693 72.4557 47.6845 
678 C 1 68.3573 72.3918 43.9809 
917 C 1 68.4433 71.8775 45.2873 
688 C 1 68.5 71.8934 41.5431 
689 C 1 68.6309 71.4886 42.963 
893 C 1 67.8376 74.6776 48.4263 
921 C 1 70.727 68.977 48.4319 
692 C 1 70.6786 68.8009 44.8056 
906 C 1 68.8791 71.0857 47.9226 
918 C 1 69.009 70.5932 45.539 
690 C 1 69.3324 70.1646 43.1608 
691 C 1 69.6379 69.8173 44.5046 
702 C 1 69.8615 69.9355 40.7253 
703 C 1 70.0924 69.5982 42.0707 
919 C 1 69.2842 70.2006 46.8651 
920 C 1 70.2398 69.1171 47.1333 
4602 O 3 71.7725 74.1274 41.663 
4603 H 2 72.6737 74.1159 41.9856 
4604 H 2 71.2353 74.1781 42.4536 
5482 H 2 74.8112 74.5679 42.4558 
5481 O 3 74.0319 74.8854 42.9121 
4753 H 2 72.709 74.5067 48.1889 
4600 H 2 74.5898 74.9038 44.8109 
4756 H 2 79.6734 74.0526 40.7006 
960 C 1 78.6221 69.0208 46.3513 
4598 H 2 76.7349 72.4481 47.1219 
4597 H 2 75.8236 72.6625 45.9322 
4591 H 2 77.8421 72.7426 44.5839 
4596 O 3 76.4059 72.0172 46.333 
757 C 1 80.3418 69.931 40.4738 
4592 H 2 77.4271 74.1787 44.8236 
4590 O 3 77.7689 73.5921 44.1488 
734 C 1 79.2467 69.1111 43.9072 
961 C 1 79.064 69.2428 47.6477 
744 C 1 79.651 69.3551 41.5343 
745 C 1 80.0253 69.6224 42.841 
962 C 1 80.259 69.9566 47.8934 
969 C 1 79.4336 69.4813 45.303 
970 C 1 80.5358 70.4059 45.5354 
971 C 1 80.8743 70.6426 46.8445 
746 C 1 81.0071 70.6081 43.1637 
758 C 1 81.2411 71.067 40.7294 
4939 H 2 76.7277 73.8619 42.5876 
4938 O 3 76.3632 74.1068 41.7371 
4940 H 2 77.1245 74.3525 41.2115 
5205 O 3 75.3761 73.8666 48.4232 
5207 H 2 76.0488 74.2734 47.8771 
747 C 1 81.2822 71.0599 44.5096 
759 C 1 81.5352 71.4408 42.0783 
972 C 1 81.572 71.8539 47.1291 
748 C 1 81.8001 72.3511 44.7952 
977 C 1 81.8357 72.7766 46.1289 
760 C 1 82.005 72.785 42.3484 
761 C 1 82.118 73.2441 43.7267 
762 C 1 82.3097 74.6566 43.9383 
771 C 1 82.1168 73.7328 41.3053 
978 C 1 82.052 74.196 46.3933 
979 C 1 81.9954 74.6346 47.7233 
973 C 1 81.6371 72.3333 48.5364 
892 C 1 67.8193 75.1821 47.1215 
661 C 1 68.4653 77.7701 42.8787 
662 C 1 68.1176 76.4211 43.1537 
663 C 1 67.9501 76.009 44.484 
674 C 1 67.8155 76.0994 40.7349 
675 C 1 67.9397 75.5607 42.0529 
878 C 1 68.0755 77.4019 48.0005 
890 C 1 67.953 77.0297 45.5389 
891 C 1 67.8451 76.5632 46.8913 
660 C 1 68.4549 78.2663 41.5077 
889 C 1 68.508 78.2962 45.2934 
877 C 1 68.631 78.7504 47.8033 
650 C 1 68.7088 78.6423 43.9561 
4515 O 3 72.2027 77.4288 48.3695 
4618 H 2 74.5186 78.1247 45.2929 
5532 O 3 73.2405 78.2009 43.6769 
5483 H 2 73.8963 75.7688 42.5693 
5359 H 2 72.5371 77.6111 40.5959 
876 C 1 68.8449 79.1466 46.4323 
659 C 1 69.1739 79.4782 41.2294 
636 C 1 70.1757 80.4571 44.8235 
648 C 1 69.8559 80.1448 42.3412 
649 C 1 69.5202 79.7823 43.6409 
875 C 1 69.7693 80.1948 46.1563 
864 C 1 70.3981 80.9079 47.2022 
647 C 1 70.791 81.1714 42.1145 
4723 H 2 71.6732 75.4582 40.617 
5358 O 3 73.0972 78.3315 40.8847 
5534 H 2 73.276 78.3076 42.7263 
4619 H 2 73.7793 78.7403 46.4619 
5533 H 2 72.3206 78.0131 43.8631 
4601 H 2 74.7056 75.5176 46.1899 
5360 H 2 73.9878 77.9897 40.8056 
4617 O 3 74.6555 78.4944 46.1652 
865 C 1 70.0303 80.5896 48.5265 
4810 H 2 77.4738 78.9064 47.7876 
5309 H 2 78.652 77.7509 40.7037 
4900 H 2 76.86 75.552 46.4896 
4899 O 3 77.4044 75.216 47.2016 
4901 H 2 77.5878 75.982 47.7455 
5140 H 2 75.8498 75.7419 40.9455 
5141 H 2 76.1094 77.2163 40.7202 
5139 O 3 75.4225 76.5981 40.9699 
605 C 1 79.108 81.0932 42.8036 
598 C 1 79.7787 80.5411 43.8802 
603 C 1 80.3985 79.6936 41.2346 
604 C 1 79.4494 80.7057 41.4448 
820 C 1 80.2473 80.2184 46.2979 
821 C 1 79.9487 80.5887 47.6803 
833 C 1 79.5335 80.8784 45.2425 
597 C 1 80.6963 79.4302 43.6475 
4599 O 3 75.2319 75.194 45.4588 
819 C 1 80.9989 79.0544 46.0685 
596 C 1 80.8672 78.9584 42.3473 
592 C 1 81.2089 78.6867 44.7073 
4809 O 3 76.996 78.0846 47.8997 
4811 H 2 76.2343 78.1698 47.3262 
805 C 1 82.2242 75.073 45.3067 
593 C 1 81.9521 75.999 40.4756 
772 C 1 82.2018 75.0751 41.54 
808 C 1 81.478 78.2951 47.1819 
595 C 1 81.5814 77.777 42.0838 
589 C 1 82.1961 75.5895 42.8558 
590 C 1 81.8879 76.9302 43.1685 
591 C 1 81.7773 77.4244 44.4495 
594 C 1 81.799 77.3914 40.7143 
806 C 1 82.0913 76.5484 45.5135 
807 C 1 81.9622 76.9812 46.8872 
980 C 1 82.024 76.0646 47.942 
809 C 1 81.3533 78.6991 48.5324 
635 C 1 71.2076 81.3487 44.5312 
646 C 1 71.2318 81.4091 40.7972 
634 C 1 71.5952 81.6007 43.1875 
645 C 1 72.4474 82.1782 40.4524 
622 C 1 73.8297 82.1218 43.9524 
862 C 1 72.0821 81.7281 45.6295 
631 C 1 74.7091 82.5116 41.2411 
632 C 1 73.3659 82.2741 41.5409 
633 C 1 72.8892 82.0318 42.8839 
850 C 1 72.4639 82.0301 48.0078 
848 C 1 74.3967 82.2231 46.3705 
849 C 1 73.8507 82.2793 47.7019 
863 C 1 71.6124 81.6543 46.9482 
861 C 1 73.4524 82.0601 45.3242 
607 C 1 77.5513 82.1443 44.4118 
619 C 1 77.027 82.1495 42.0345 
608 C 1 76.1413 82.3045 44.6992 
834 C 1 78.4502 81.7665 45.4807 
847 C 1 75.7462 82.3523 46.0259 
606 C 1 77.9733 81.9072 43.09 
822 C 1 78.8327 81.4893 47.9771 
618 C 1 77.4916 81.9349 40.6799 
835 C 1 78.0179 81.9196 46.8758 
621 C 1 75.1904 82.344 43.5848 
620 C 1 75.6662 82.3894 42.2428 
836 C 1 76.6269 82.3439 47.1869 
902 C 1 72.964 68.0944 55.2067 
912 C 1 73.4094 67.996 52.7501 
913 C 1 73.8765 67.821 54.0922 
923 C 1 72.4584 68.1548 50.1145 
924 C 1 73.8054 67.7721 50.3869 
925 C 1 74.3241 67.7477 51.7483 
935 C 1 74.7702 67.7851 49.2846 
922 C 1 72.0159 68.3107 48.767 
1141 C 1 73.3864 68.0035 56.5551 
911 C 1 72.1281 68.5005 52.4974 