ITEM: TIMESTEP
533204
ITEM: NUMBER OF ATOMS
5480
ITEM: BOX BOUNDS pp pp pp
0.0000000000000000e+00 1.5000000000000000e+02
0.0000000000000000e+00 1.5000000000000000e+02
0.0000000000000000e+00 2.5000000000000000e+02
ITEM: ATOMS id element type x y z 
126 C 1 71.647 68.574 5.895 
127 C 1 72.066 68.372 7.235 
128 C 1 73.387 67.934 7.503 
138 C 1 72.066 68.372 3.484 
139 C 1 72.497 68.198 4.824 
140 C 1 73.843 67.845 5.092 
141 C 1 74.304 67.785 6.431 
148 C 1 72.497 68.198 1.072 
149 C 1 72.938 68.051 2.412 
150 C 1 74.304 67.785 2.68 
151 C 1 74.768 67.756 4.02 
161 C 1 73.387 67.934 0 
162 C 1 74.768 67.756 0.268 
4429 C 1 71.647 68.574 7.258 
4430 C 1 72.938 68.051 7.526 
4438 C 1 71.647 68.574 3.506 
4439 C 1 72.066 68.372 4.846 
4440 C 1 73.387 67.934 5.114 
4441 C 1 73.843 67.845 6.454 
4450 C 1 72.066 68.372 1.094 
4451 C 1 72.497 68.198 2.434 
4452 C 1 73.843 67.845 2.702 
4453 C 1 74.304 67.785 4.042 
4461 C 1 72.938 68.051 0.022 
4462 C 1 74.304 67.785 0.29 
4463 C 1 74.768 67.756 1.63 
142 C 1 75.696 67.785 6.699 
152 C 1 76.157 67.845 4.288 
153 C 1 76.613 67.934 5.628 
154 C 1 77.934 68.372 5.895 
155 C 1 78.353 68.574 7.235 
163 C 1 75.232 67.756 1.608 
164 C 1 76.613 67.934 1.876 
165 C 1 77.062 68.051 3.216 
166 C 1 78.353 68.574 3.484 
175 C 1 77.503 68.198 0.804 
4442 C 1 75.232 67.756 6.722 
4454 C 1 75.696 67.785 4.31 
4455 C 1 76.157 67.845 5.65 
4456 C 1 77.503 68.198 5.918 
4457 C 1 77.934 68.372 7.258 
4464 C 1 76.157 67.845 1.898 
4465 C 1 76.613 67.934 3.238 
4466 C 1 77.934 68.372 3.506 
4467 C 1 78.353 68.574 4.846 
4477 C 1 77.062 68.051 0.826 
4478 C 1 78.353 68.574 1.094 
98 C 1 67.886 73.614 5.895 
99 C 1 67.989 73.161 7.235 
100 C 1 68.47 71.855 7.503 
109 C 1 67.767 74.536 3.216 
110 C 1 67.989 73.161 3.484 
111 C 1 68.121 72.716 4.824 
112 C 1 68.685 71.443 5.092 
119 C 1 67.811 74.073 0.804 
120 C 1 68.121 72.716 1.072 
121 C 1 68.282 72.28 2.412 
133 C 1 68.47 71.855 0 
4400 C 1 67.811 74.073 5.918 
4401 C 1 67.886 73.614 7.258 
4402 C 1 68.282 72.28 7.526 
4410 C 1 67.886 73.614 3.506 
4411 C 1 67.989 73.161 4.846 
4412 C 1 68.47 71.855 5.114 
4413 C 1 68.685 71.443 6.454 
4421 C 1 67.767 74.536 0.826 
4422 C 1 67.989 73.161 1.094 
4423 C 1 68.121 72.716 2.434 
4424 C 1 68.685 71.443 2.702 
4433 C 1 68.282 72.28 0.022 
113 C 1 68.925 71.046 6.431 
114 C 1 69.793 69.958 6.699 
122 C 1 68.925 71.046 2.68 
123 C 1 69.191 70.665 4.02 
124 C 1 70.127 69.634 4.288 
125 C 1 70.481 69.333 5.628 
134 C 1 69.191 70.665 0.268 
135 C 1 69.481 70.302 1.608 
136 C 1 70.481 69.333 1.876 
137 C 1 70.853 69.055 3.216 
147 C 1 71.243 68.802 0.804 
4414 C 1 69.481 70.302 6.722 
4425 C 1 68.925 71.046 4.042 
4426 C 1 69.793 69.958 4.31 
4427 C 1 70.127 69.634 5.65 
4428 C 1 71.243 68.802 5.918 
4434 C 1 68.925 71.046 0.29 
4435 C 1 69.191 70.665 1.63 
4436 C 1 70.127 69.634 1.898 
4437 C 1 70.481 69.333 3.238 
4449 C 1 70.853 69.055 0.826 
5209 H 2 74.4046 74.1173 4.7061 
5208 O 3 74.9238 73.4517 4.25464 
5255 H 2 72.8216 72.9224 3.76182 
5253 O 3 71.9596 73.1664 3.42476 
5254 H 2 71.9901 72.9338 2.49677 
4518 O 3 73.9375 71.4324 7.00822 
4745 H 2 70.9817 74.2777 0.00635866 
5368 H 2 72.2054 72.3713 0.583448 
5375 H 2 71.413 74.5743 3.97968 
5389 H 2 71.2109 73.6286 6.66501 
5388 O 3 71.6468 72.9427 6.1594 
5390 H 2 71.7393 73.3134 5.28177 
4519 H 2 73.0932 71.5843 6.58354 
5369 H 2 72.2189 71.0958 1.39874 
5367 O 3 72.7239 71.891 1.22891 
4792 H 2 74.8848 70.0608 1.45649 
4793 H 2 74.641 71.5183 1.12743 
4757 H 2 74.7492 73.1255 7.33942 
4808 H 2 75.8074 71.323 5.06002 
4807 H 2 76.3485 71.6348 3.68095 
5210 H 2 75.6507 73.9377 3.86533 
4806 O 3 76.5065 71.0874 4.45015 
5467 H 2 78.0398 74.3033 3.60228 
5466 O 3 78.7612 73.9286 4.10763 
4791 O 3 75.3065 70.8321 1.07762 
156 C 1 79.519 69.333 7.503 
167 C 1 78.757 68.802 4.824 
168 C 1 79.873 69.634 5.092 
169 C 1 80.207 69.958 6.431 
170 C 1 81.075 71.046 6.699 
176 C 1 78.757 68.802 1.072 
177 C 1 79.147 69.055 2.412 
178 C 1 80.207 69.958 2.68 
179 C 1 80.519 70.302 4.02 
185 C 1 79.519 69.333 0 
186 C 1 80.519 70.302 0.268 
187 C 1 80.809 70.665 1.608 
4458 C 1 79.147 69.055 7.526 
4468 C 1 79.519 69.333 5.114 
4469 C 1 79.873 69.634 6.454 
4470 C 1 80.809 70.665 6.722 
4479 C 1 78.757 68.802 2.434 
4480 C 1 79.873 69.634 2.702 
4481 C 1 80.207 69.958 4.042 
4482 C 1 81.075 71.046 4.31 
4489 C 1 79.147 69.055 0.022 
4490 C 1 80.207 69.958 0.29 
4491 C 1 80.519 70.302 1.63 
5307 O 3 78.5177 72.8139 1.43139 
5308 H 2 78.7962 72.8917 2.34386 
5354 H 2 77.6019 72.2486 7.42455 
5352 O 3 77.8274 72.6463 6.58358 
5353 H 2 77.504 72.0259 5.93032 
5468 H 2 78.3542 73.6277 4.92007 
4756 H 2 75.9615 73.8501 6.79433 
5322 O 3 76.4847 74.9977 2.3062 
5324 H 2 76.224 74.549 1.50187 
4755 O 3 75.1235 73.9999 7.23205 
5309 H 2 77.6741 72.3637 1.47554 
180 C 1 81.315 71.443 4.288 
181 C 1 81.53 71.855 5.628 
182 C 1 82.011 73.161 5.895 
183 C 1 82.114 73.614 7.235 
188 C 1 81.53 71.855 1.876 
189 C 1 81.718 72.28 3.216 
190 C 1 82.114 73.614 3.484 
191 C 1 82.189 74.073 4.824 
193 C 1 81.879 72.716 0.804 
194 C 1 82.189 74.073 1.072 
195 C 1 82.233 74.536 2.412 
4483 C 1 81.315 71.443 5.65 
4484 C 1 81.879 72.716 5.918 
4485 C 1 82.011 73.161 7.258 
4486 C 1 82.233 74.536 7.526 
4492 C 1 81.315 71.443 1.898 
4493 C 1 81.53 71.855 3.238 
4494 C 1 82.011 73.161 3.506 
4495 C 1 82.114 73.614 4.846 
4501 C 1 81.718 72.28 0.826 
4502 C 1 82.114 73.614 1.094 
4503 C 1 82.189 74.073 2.434 
4507 C 1 82.233 74.536 0.022 
72 C 1 68.47 78.145 7.503 
84 C 1 68.282 77.72 5.092 
85 C 1 68.121 77.284 6.431 
86 C 1 67.811 75.927 6.699 
93 C 1 68.685 78.557 2.412 
94 C 1 68.121 77.284 2.68 
95 C 1 67.989 76.839 4.02 
96 C 1 67.767 75.464 4.288 
97 C 1 67.752 75 5.628 
105 C 1 68.47 78.145 0 
106 C 1 67.989 76.839 0.268 
107 C 1 67.886 76.386 1.608 
108 C 1 67.752 75 1.876 
4374 C 1 68.685 78.557 7.526 
4384 C 1 68.47 78.145 5.114 
4385 C 1 68.282 77.72 6.454 
4386 C 1 67.886 76.386 6.722 
4396 C 1 68.282 77.72 2.702 
4397 C 1 68.121 77.284 4.042 
4398 C 1 67.811 75.927 4.31 
4399 C 1 67.767 75.464 5.65 
4405 C 1 68.685 78.557 0.022 
4406 C 1 68.121 77.284 0.29 
4407 C 1 67.989 76.839 1.63 
4408 C 1 67.767 75.464 1.898 
4409 C 1 67.752 75 3.238 
5373 O 3 71.1086 75.375 4.40677 
5462 H 2 72.768 75.4229 1.87414 
5460 O 3 73.6652 75.6562 1.63576 
5374 H 2 71.8787 75.7098 4.86607 
4528 H 2 74.3701 75.7359 6.34008 
5364 O 3 70.9439 75.6327 1.41185 
4712 H 2 73.723 78.4178 6.3383 
5366 H 2 70.4786 75.5078 2.23896 
4711 H 2 73.8012 78.8623 4.89324 
4710 O 3 74.3461 78.6655 5.65519 
4617 O 3 72.2166 78.2934 4.0906 
58 C 1 71.243 81.198 6.699 
68 C 1 70.853 80.945 4.288 
69 C 1 70.481 80.667 5.628 
70 C 1 69.481 79.698 5.895 
71 C 1 69.191 79.335 7.235 
80 C 1 70.481 80.667 1.876 
81 C 1 70.127 80.366 3.216 
82 C 1 69.191 79.335 3.484 
83 C 1 68.925 78.954 4.824 
91 C 1 69.793 80.042 0.804 
92 C 1 68.925 78.954 1.072 
4370 C 1 71.243 81.198 4.31 
4371 C 1 70.853 80.945 5.65 
4372 C 1 69.793 80.042 5.918 
4373 C 1 69.481 79.698 7.258 
4380 C 1 70.853 80.945 1.898 
4381 C 1 70.481 80.667 3.238 
4382 C 1 69.481 79.698 3.506 
4383 C 1 69.191 79.335 4.846 
4393 C 1 70.127 80.366 0.826 
4394 C 1 69.191 79.335 1.094 
4395 C 1 68.925 78.954 2.434 
4618 H 2 71.3031 78.488 3.88119 
4619 H 2 72.6222 78.1062 3.24406 
5365 H 2 70.8472 76.5656 1.22057 
4527 O 3 74.0807 76.0286 5.47591 
4529 H 2 74.1094 76.9842 5.52417 
4539 O 3 72.7878 78.4269 0.996143 
5461 H 2 73.6144 76.5782 1.3835 
4671 O 3 72.1028 77.9036 7.24474 
4540 H 2 73.3037 79.2331 0.98504 
4672 H 2 71.7319 77.5811 6.42331 
4541 H 2 72.7945 78.1252 0.0877636 
5447 H 2 78.1902 76.1532 5.19413 
5445 O 3 77.9776 76.9711 4.74462 
5446 H 2 77.6867 77.5593 5.44145 
4735 H 2 75.9855 78.8898 6.30835 
4734 O 3 76.8502 78.7473 6.69328 
5386 H 2 77.8779 76.3573 1.85233 
5385 O 3 78.4349 77.1355 1.83048 
5387 H 2 78.614 77.3283 2.75079 
5256 O 3 76.3492 78.6002 0.473493 
5323 H 2 75.8805 75.7369 2.37528 
14 C 1 80.809 79.335 5.895 
15 C 1 80.519 79.698 7.235 
16 C 1 79.519 80.667 7.503 
26 C 1 80.519 79.698 3.484 
27 C 1 80.207 80.042 4.824 
28 C 1 79.147 80.945 5.092 
29 C 1 78.757 81.198 6.431 
35 C 1 81.075 78.954 0.804 
36 C 1 80.207 80.042 1.072 
37 C 1 79.873 80.366 2.412 
38 C 1 78.757 81.198 2.68 
49 C 1 79.519 80.667 0 
4320 C 1 81.075 78.954 5.918 
4321 C 1 80.809 79.335 7.258 
4322 C 1 79.873 80.366 7.526 
4326 C 1 80.809 79.335 3.506 
4327 C 1 80.519 79.698 4.846 
4328 C 1 79.519 80.667 5.114 
4329 C 1 79.147 80.945 6.454 
4338 C 1 80.519 79.698 1.094 
4339 C 1 80.207 80.042 2.434 
4340 C 1 79.147 80.945 2.702 
4341 C 1 78.757 81.198 4.042 
4349 C 1 79.873 80.366 0.022 
4350 C 1 78.757 81.198 0.29 
5258 H 2 76.9777 78.2271 1.09164 
4565 H 2 77.744 76.7798 7.49102 
4564 H 2 76.5961 75.8165 7.70633 
4736 H 2 76.9457 79.4501 7.33602 
5 C 1 82.189 75.927 6.431 
6 C 1 81.879 77.284 6.699 
11 C 1 82.114 76.386 4.02 
12 C 1 81.718 77.72 4.288 
13 C 1 81.53 78.145 5.628 
21 C 1 82.248 75 0 
22 C 1 82.114 76.386 0.268 
23 C 1 82.011 76.839 1.608 
24 C 1 81.53 78.145 1.876 
25 C 1 81.315 78.557 3.216 
184 C 1 82.248 75 7.503 
192 C 1 82.233 75.464 5.092 
196 C 1 82.189 75.927 2.68 
4313 C 1 82.233 75.464 6.454 
4314 C 1 82.011 76.839 6.722 
4317 C 1 82.189 75.927 4.042 
4318 C 1 81.879 77.284 4.31 
4319 C 1 81.718 77.72 5.65 
4323 C 1 82.114 76.386 1.63 
4324 C 1 81.718 77.72 1.898 
4325 C 1 81.53 78.145 3.238 
4337 C 1 81.315 78.557 0.826 
4496 C 1 82.248 75 5.114 
4504 C 1 82.233 75.464 2.702 
4508 C 1 82.189 75.927 0.29 
43 C 1 74.768 82.244 7.235 
44 C 1 73.387 82.066 7.503 
54 C 1 74.768 82.244 3.484 
55 C 1 74.304 82.215 4.824 
56 C 1 72.938 81.949 5.092 
57 C 1 72.497 81.802 6.431 
64 C 1 74.304 82.215 1.072 
65 C 1 73.843 82.155 2.412 
66 C 1 72.497 81.802 2.68 
67 C 1 72.066 81.628 4.02 
77 C 1 73.387 82.066 0 
78 C 1 72.066 81.628 0.268 
79 C 1 71.647 81.426 1.608 
4346 C 1 73.843 82.155 7.526 
4355 C 1 74.768 82.244 4.846 
4356 C 1 73.387 82.066 5.114 
4357 C 1 72.938 81.949 6.454 
4358 C 1 71.647 81.426 6.722 
4366 C 1 74.768 82.244 1.094 
4367 C 1 74.304 82.215 2.434 
4368 C 1 72.938 81.949 2.702 
4369 C 1 72.497 81.802 4.042 
4377 C 1 73.843 82.155 0.022 
4378 C 1 72.497 81.802 0.29 
4379 C 1 72.066 81.628 1.63 
30 C 1 77.503 81.802 6.699 
39 C 1 78.353 81.426 4.02 
40 C 1 77.062 81.949 4.288 
41 C 1 76.613 82.066 5.628 
42 C 1 75.232 82.244 5.895 
50 C 1 78.353 81.426 0.268 
51 C 1 77.934 81.628 1.608 
52 C 1 76.613 82.066 1.876 
53 C 1 76.157 82.155 3.216 
63 C 1 75.696 82.215 0.804 
4330 C 1 77.934 81.628 6.722 
4342 C 1 77.503 81.802 4.31 
4343 C 1 77.062 81.949 5.65 
4344 C 1 75.696 82.215 5.918 
4345 C 1 75.232 82.244 7.258 
4351 C 1 78.353 81.426 1.63 
4352 C 1 77.062 81.949 1.898 
4353 C 1 76.613 82.066 3.238 
4354 C 1 75.232 82.244 3.506 
4365 C 1 76.157 82.155 0.826 
117 C 1 71.647 68.574 9.647 
118 C 1 72.938 68.051 9.915 
129 C 1 73.843 67.845 8.843 
334 C 1 72.066 68.372 14.739 
344 C 1 72.497 68.198 12.327 
345 C 1 72.938 68.051 13.667 
346 C 1 74.304 67.785 13.935 
347 C 1 74.768 67.756 15.275 
357 C 1 73.387 67.934 11.255 
358 C 1 74.768 67.756 11.523 
130 C 1 75.232 67.756 9.111 
131 C 1 75.696 67.785 10.451 
132 C 1 77.062 68.051 10.719 
143 C 1 76.157 67.845 8.039 
144 C 1 77.503 68.198 8.307 
145 C 1 77.934 68.372 9.647 
348 C 1 76.157 67.845 15.543 
359 C 1 75.232 67.756 12.863 
360 C 1 76.613 67.934 13.131 
361 C 1 77.062 68.051 14.471 
362 C 1 78.353 68.574 14.739 
371 C 1 77.503 68.198 12.059 
4443 C 1 75.696 67.785 8.062 
4444 C 1 77.062 68.051 8.33 
76 C 1 67.767 74.536 10.719 
88 C 1 67.811 74.073 8.307 
89 C 1 67.886 73.614 9.647 
90 C 1 68.282 72.28 9.915 
101 C 1 68.685 71.443 8.843 
305 C 1 67.767 74.536 14.471 
306 C 1 67.989 73.161 14.739 
315 C 1 67.811 74.073 12.059 
316 C 1 68.121 72.716 12.327 
317 C 1 68.282 72.28 13.667 
329 C 1 68.47 71.855 11.255 
4388 C 1 67.767 74.536 8.33 
4646 H 2 73.5599 71.2595 14.3914 
102 C 1 69.481 70.302 9.111 
103 C 1 69.793 69.958 10.451 
104 C 1 70.853 69.055 10.719 
115 C 1 70.127 69.634 8.039 
116 C 1 71.243 68.802 8.307 
318 C 1 68.925 71.046 13.935 
319 C 1 69.191 70.665 15.275 
320 C 1 70.127 69.634 15.543 
330 C 1 69.191 70.665 11.523 
331 C 1 69.481 70.302 12.863 
332 C 1 70.481 69.333 13.131 
333 C 1 70.853 69.055 14.471 
343 C 1 71.243 68.802 12.059 
4415 C 1 69.793 69.958 8.062 
4416 C 1 70.853 69.055 8.33 
4520 H 2 73.7175 70.9906 7.8284 
4623 O 3 73.635 71.3002 12.5869 
4624 H 2 73.2369 72.0981 12.239 
4535 H 2 74.0324 70.8173 10.8087 
4530 O 3 74.6228 74.266 10.1315 
4531 H 2 74.2285 73.4275 9.89101 
4625 H 2 74.5648 71.5123 12.6696 
4532 H 2 73.8897 74.8813 10.1431 
4533 O 3 74.0934 71.3406 10.0095 
4812 O 3 71.602 73.1088 10.4931 
4813 H 2 71.2717 73.4725 11.3146 
4814 H 2 70.8152 72.8952 9.99167 
5441 H 2 73.7831 73.7272 14.7012 
5439 O 3 73.4644 74.5259 14.2807 
5440 H 2 74.2074 74.8383 13.7645 
5416 H 2 71.6428 74.4581 9.08984 
4570 H 2 71.7293 74.5548 13.1811 
4569 O 3 70.9768 74.5113 12.5912 
4644 O 3 73.8328 71.6268 15.2321 
4645 H 2 73.0423 72.0372 15.5828 
4586 H 2 76.2021 71.6725 14.0767 
4582 H 2 75.075 74.651 11.776 
4585 H 2 76.4265 72.9575 13.3084 
4584 O 3 76.063 72.0764 13.2201 
4534 H 2 75.0292 71.5139 9.90708 
4588 H 2 77.4004 72.2127 9.80582 
146 C 1 79.147 69.055 9.915 
157 C 1 79.873 69.634 8.843 
158 C 1 80.809 70.665 9.111 
159 C 1 81.075 71.046 10.451 
372 C 1 78.757 68.802 12.327 
373 C 1 79.147 69.055 13.667 
374 C 1 80.207 69.958 13.935 
375 C 1 80.519 70.302 15.275 
381 C 1 79.519 69.333 11.255 
382 C 1 80.519 70.302 11.523 
383 C 1 80.809 70.665 12.863 
4471 C 1 81.075 71.046 8.062 
4589 H 2 76.3836 73.0852 9.10091 
4587 O 3 76.6611 72.1743 9.19904 
5391 O 3 78.6407 73.3451 14.1441 
4685 H 2 79.7298 73.1495 9.81115 
4683 O 3 78.9947 73.6794 10.1197 
5392 H 2 78.6298 74.2421 14.478 
5393 H 2 79.1287 73.4007 13.3226 
4581 O 3 75.4565 74.9553 12.5995 
4684 H 2 78.5929 74.0207 9.32087 
160 C 1 81.718 72.28 10.719 
171 C 1 81.315 71.443 8.039 
172 C 1 81.879 72.716 8.307 
173 C 1 82.011 73.161 9.647 
174 C 1 82.233 74.536 9.915 
376 C 1 81.315 71.443 15.543 
384 C 1 81.53 71.855 13.131 
385 C 1 81.718 72.28 14.471 
386 C 1 82.114 73.614 14.739 
389 C 1 81.879 72.716 12.059 
390 C 1 82.189 74.073 12.327 
391 C 1 82.233 74.536 13.667 
4472 C 1 81.718 72.28 8.33 
62 C 1 68.685 78.557 9.915 
73 C 1 68.282 77.72 8.843 
74 C 1 67.886 76.386 9.111 
75 C 1 67.811 75.927 10.451 
87 C 1 67.767 75.464 8.039 
289 C 1 68.685 78.557 13.667 
290 C 1 68.121 77.284 13.935 
291 C 1 67.989 76.839 15.275 
292 C 1 67.767 75.464 15.543 
301 C 1 68.47 78.145 11.255 
302 C 1 67.989 76.839 11.523 
303 C 1 67.886 76.386 12.863 
304 C 1 67.752 75 13.131 
4387 C 1 67.811 75.927 8.062 
5453 H 2 73.4472 78.5719 15.0116 
5417 H 2 71.737 75.9565 9.28445 
4571 H 2 70.3294 75.0966 12.9844 
5454 O 3 73.724 78.9117 12.4222 
4673 H 2 71.9642 77.1897 7.86717 
5415 O 3 71.6389 75.2857 8.60877 
47 C 1 71.243 81.198 10.451 
48 C 1 70.127 80.366 10.719 
59 C 1 70.853 80.945 8.039 
60 C 1 69.793 80.042 8.307 
61 C 1 69.481 79.698 9.647 
264 C 1 70.853 80.945 15.543 
276 C 1 70.481 80.667 13.131 
277 C 1 70.127 80.366 14.471 
278 C 1 69.191 79.335 14.739 
287 C 1 69.793 80.042 12.059 
288 C 1 68.925 78.954 12.327 
4359 C 1 71.243 81.198 8.062 
4360 C 1 70.127 80.366 8.33 
5480 H 2 72.2524 77.3637 11.2125 
5478 O 3 72.5257 77.203 10.3093 
5479 H 2 73.337 77.7016 10.2117 
5455 H 2 73.773 79.7714 12.8401 
5456 H 2 74.5543 78.4897 12.6432 
5382 O 3 78.395 75.5807 15.4572 
4567 H 2 77.7768 76.2469 10.1315 
4563 O 3 77.5068 75.9763 7.95411 
5346 O 3 76.7155 78.365 13.1768 
4566 O 3 77.775 76.227 11.0885 
4568 H 2 78.3278 75.4789 11.314 
4583 H 2 75.9964 75.7056 12.351 
8 C 1 81.075 78.954 8.307 
9 C 1 80.809 79.335 9.647 
10 C 1 79.873 80.366 9.915 
17 C 1 79.147 80.945 8.843 
222 C 1 80.519 79.698 14.739 
231 C 1 81.075 78.954 12.059 
232 C 1 80.207 80.042 12.327 
233 C 1 79.873 80.366 13.667 
234 C 1 78.757 81.198 13.935 
245 C 1 79.519 80.667 11.255 
5347 H 2 77.2032 77.7775 12.5995 
5348 H 2 77.3889 78.8058 13.695 
1 C 1 82.233 75.464 8.843 
2 C 1 82.011 76.839 9.111 
3 C 1 81.879 77.284 10.451 
4 C 1 81.315 78.557 10.719 
7 C 1 81.718 77.72 8.039 
207 C 1 82.114 76.386 15.275 
208 C 1 81.718 77.72 15.543 
217 C 1 82.248 75 11.255 
218 C 1 82.114 76.386 11.523 
219 C 1 82.011 76.839 12.863 
220 C 1 81.53 78.145 13.131 
221 C 1 81.315 78.557 14.471 
392 C 1 82.189 75.927 13.935 
4315 C 1 81.879 77.284 8.062 
4316 C 1 81.315 78.557 8.33 
273 C 1 73.387 82.066 11.255 
275 C 1 71.647 81.426 12.863 
274 C 1 72.066 81.628 11.523 
34 C 1 73.843 82.155 9.915 
45 C 1 72.938 81.949 8.843 
260 C 1 74.304 82.215 12.327 
250 C 1 74.768 82.244 14.739 
46 C 1 71.647 81.426 9.111 
261 C 1 73.843 82.155 13.667 
263 C 1 72.066 81.628 15.275 
262 C 1 72.497 81.802 13.935 
246 C 1 78.353 81.426 11.523 
247 C 1 77.934 81.628 12.863 
249 C 1 76.157 82.155 14.471 
4332 C 1 76.157 82.155 8.33 
32 C 1 75.696 82.215 8.307 
259 C 1 75.696 82.215 12.059 
18 C 1 77.934 81.628 9.111 
4331 C 1 77.503 81.802 8.062 
19 C 1 77.503 81.802 10.451 
20 C 1 76.157 82.155 10.719 
248 C 1 76.613 82.066 13.131 
236 C 1 77.062 81.949 15.543 
235 C 1 78.353 81.426 15.275 
31 C 1 77.062 81.949 8.039 
33 C 1 75.232 82.244 9.647 
313 C 1 71.647 68.574 20.902 
314 C 1 72.938 68.051 21.17 
322 C 1 71.647 68.574 17.151 
323 C 1 72.066 68.372 18.49 
324 C 1 73.387 67.934 18.758 
325 C 1 73.843 67.845 20.098 
335 C 1 72.497 68.198 16.079 
336 C 1 73.843 67.845 16.347 
337 C 1 74.304 67.785 17.686 
553 C 1 73.387 67.934 22.51 
554 C 1 74.768 67.756 22.778 
326 C 1 75.232 67.756 20.366 
327 C 1 75.696 67.785 21.706 
328 C 1 77.062 68.051 21.974 
338 C 1 75.696 67.785 17.954 
339 C 1 76.157 67.845 19.294 
340 C 1 77.503 68.198 19.562 
341 C 1 77.934 68.372 20.902 
349 C 1 76.613 67.934 16.883 
350 C 1 77.934 68.372 17.151 
351 C 1 78.353 68.574 18.49 
567 C 1 77.503 68.198 23.314 
272 C 1 67.767 74.536 21.974 
284 C 1 67.811 74.073 19.562 
285 C 1 67.886 73.614 20.902 
286 C 1 68.282 72.28 21.17 
294 C 1 67.886 73.614 17.151 
295 C 1 67.989 73.161 18.49 
296 C 1 68.47 71.855 18.758 
297 C 1 68.685 71.443 20.098 
307 C 1 68.121 72.716 16.079 
308 C 1 68.685 71.443 16.347 
511 C 1 67.811 74.073 23.314 
525 C 1 68.47 71.855 22.51 
298 C 1 69.481 70.302 20.366 
299 C 1 69.793 69.958 21.706 
300 C 1 70.853 69.055 21.974 
309 C 1 68.925 71.046 17.686 
310 C 1 69.793 69.958 17.954 
311 C 1 70.127 69.634 19.294 
312 C 1 71.243 68.802 19.562 
321 C 1 70.481 69.333 16.883 
526 C 1 69.191 70.665 22.778 
539 C 1 71.243 68.802 23.314 
4768 H 2 71.273 72.7947 21.7072 
4769 H 2 72.57 72.465 20.9994 
4767 O 3 71.7545 72.9554 20.8957 
4636 H 2 73.6861 74.1245 21.562 
5332 H 2 70.8566 72.3242 17.8297 
5331 O 3 71.7134 72.7257 17.974 
5333 H 2 71.8629 72.6403 18.9156 
4599 O 3 74.2799 71.5695 21.5408 
4601 H 2 74.8194 71.0704 20.9276 
5401 H 2 73.3452 73.5704 18.085 
5400 O 3 74.1752 73.9787 17.8388 
4600 H 2 74.9098 72.0052 22.115 
4523 H 2 74.8165 71.0275 18.4389 
4635 O 3 73.7723 74.997 21.9463 
5402 H 2 74.8249 73.2835 17.9434 
4596 O 3 77.4964 71.758 20.8744 
4597 H 2 77.1208 72.3015 20.1818 
4598 H 2 77.6492 72.3644 21.5991 
5379 O 3 78.1248 73.0304 17.1276 
5381 H 2 78.2112 72.8155 16.1988 
342 C 1 79.147 69.055 21.17 
352 C 1 79.519 69.333 18.758 
353 C 1 79.873 69.634 20.098 
354 C 1 80.809 70.665 20.366 
355 C 1 81.075 71.046 21.706 
363 C 1 78.757 68.802 16.079 
364 C 1 79.873 69.634 16.347 
365 C 1 80.207 69.958 17.686 
366 C 1 81.075 71.046 17.954 
577 C 1 79.519 69.333 22.51 
578 C 1 80.519 70.302 22.778 
5380 H 2 78.2277 72.1924 17.5785 
4879 H 2 77.5514 73.9213 18.7675 
4878 O 3 77.104 74.2452 19.5492 
4786 H 2 76.5636 73.1591 23.1868 
4522 H 2 75.3848 71.4069 17.088 
4521 O 3 75.574 71.4417 18.0256 
4723 H 2 77.4058 74.7401 21.7245 
4722 O 3 77.7066 74.989 22.5984 
356 C 1 81.718 72.28 21.974 
367 C 1 81.315 71.443 19.294 
368 C 1 81.879 72.716 19.562 
369 C 1 82.011 73.161 20.902 
370 C 1 82.233 74.536 21.17 
377 C 1 81.53 71.855 16.883 
378 C 1 82.011 73.161 17.151 
379 C 1 82.114 73.614 18.49 
387 C 1 82.189 74.073 16.079 
585 C 1 81.879 72.716 23.314 
258 C 1 68.685 78.557 21.17 
268 C 1 68.47 78.145 18.758 
269 C 1 68.282 77.72 20.098 
270 C 1 67.886 76.386 20.366 
271 C 1 67.811 75.927 21.706 
280 C 1 68.282 77.72 16.347 
281 C 1 68.121 77.284 17.686 
282 C 1 67.811 75.927 17.954 
283 C 1 67.767 75.464 19.294 
293 C 1 67.752 75 16.883 
497 C 1 68.47 78.145 22.51 
498 C 1 67.989 76.839 22.778 
4637 H 2 73.8871 75.5796 21.1955 
4595 H 2 71.2328 76.7595 20.9667 
4594 H 2 71.0963 75.4769 20.1742 
4593 O 3 71.2114 76.4216 20.0714 
4790 H 2 72.804 75.806 17.164 
4789 H 2 71.6237 76.3823 17.9167 
5452 H 2 72.764 77.7009 16.0443 
5451 O 3 73.5593 78.2111 15.891 
243 C 1 71.243 81.198 21.706 
244 C 1 70.127 80.366 21.974 
254 C 1 71.243 81.198 17.954 
255 C 1 70.853 80.945 19.294 
256 C 1 69.793 80.042 19.562 
257 C 1 69.481 79.698 20.902 
265 C 1 70.481 80.667 16.883 
266 C 1 69.481 79.698 17.151 
267 C 1 69.191 79.335 18.49 
279 C 1 68.925 78.954 16.079 
483 C 1 69.793 80.042 23.314 
4718 H 2 73.0104 77.0944 19.9195 
4716 O 3 73.9496 77.0688 20.1025 
4717 H 2 74.2964 77.8592 19.6887 
4649 H 2 71.9034 77.7635 23.1663 
4647 O 3 71.39 77.0451 22.7969 
4648 H 2 72.0227 76.3378 22.6715 
4788 O 3 71.9809 76.2773 17.0349 
5383 H 2 77.4684 75.6745 15.6785 
4903 H 2 75.3252 77.3023 21.7439 
4904 H 2 75.9459 77.3641 23.1233 
5411 H 2 75.2983 76.1871 15.727 
5409 O 3 75.9105 75.884 16.3976 
4555 H 2 75.0936 78.6858 17.0881 
4554 O 3 75.371 78.8768 17.9841 
5410 H 2 75.3565 75.664 17.1465 
4556 H 2 75.9704 79.618 17.8969 
5471 H 2 78.5032 76.8061 17.0001 
5469 O 3 78.1876 77.1132 17.85 
4739 H 2 77.3877 77.3214 20.7291 
5470 H 2 77.3227 77.4801 17.6666 
204 C 1 81.075 78.954 19.562 
205 C 1 80.809 79.335 20.902 
206 C 1 79.873 80.366 21.17 
210 C 1 80.809 79.335 17.151 
211 C 1 80.519 79.698 18.49 
212 C 1 79.519 80.667 18.758 
213 C 1 79.147 80.945 20.098 
223 C 1 80.207 80.042 16.079 
224 C 1 79.147 80.945 16.347 
225 C 1 78.757 81.198 17.686 
427 C 1 81.075 78.954 23.314 
441 C 1 79.519 80.667 22.51 
4737 O 3 78.2607 76.9404 20.6343 
4880 H 2 76.7888 75.1147 19.3025 
4738 H 2 78.4864 77.0835 19.7152 
4724 H 2 78.018 75.8885 22.4979 
4902 O 3 75.8599 77.8599 22.309 
5384 H 2 78.774 75.1158 16.2032 
197 C 1 82.233 75.464 20.098 
198 C 1 82.011 76.839 20.366 
199 C 1 81.879 77.284 21.706 
200 C 1 81.315 78.557 21.974 
201 C 1 82.189 75.927 17.686 
202 C 1 81.879 77.284 17.954 
203 C 1 81.718 77.72 19.294 
209 C 1 81.53 78.145 16.883 
380 C 1 82.248 75 18.758 
388 C 1 82.233 75.464 16.347 
413 C 1 82.248 75 22.51 
414 C 1 82.114 76.386 22.778 
230 C 1 73.843 82.155 21.17 
239 C 1 74.768 82.244 18.49 
240 C 1 73.387 82.066 18.758 
241 C 1 72.938 81.949 20.098 
242 C 1 71.647 81.426 20.366 
251 C 1 74.304 82.215 16.079 
252 C 1 72.938 81.949 16.347 
253 C 1 72.497 81.802 17.686 
469 C 1 73.387 82.066 22.51 
470 C 1 72.066 81.628 22.778 
214 C 1 77.934 81.628 20.366 
215 C 1 77.503 81.802 21.706 
216 C 1 76.157 82.155 21.974 
226 C 1 77.503 81.802 17.954 
227 C 1 77.062 81.949 19.294 
228 C 1 75.696 82.215 19.562 
229 C 1 75.232 82.244 20.902 
237 C 1 76.613 82.066 16.883 
238 C 1 75.232 82.244 17.151 
442 C 1 78.353 81.426 22.778 
455 C 1 75.696 82.215 23.314 
518 C 1 71.647 68.574 28.406 
519 C 1 72.066 68.372 29.745 
520 C 1 73.387 67.934 30.013 
530 C 1 72.066 68.372 25.994 
531 C 1 72.497 68.198 27.334 
532 C 1 73.843 67.845 27.602 
533 C 1 74.304 67.785 28.941 
540 C 1 72.497 68.198 23.582 
541 C 1 72.938 68.051 24.922 
542 C 1 74.304 67.785 25.19 
543 C 1 74.768 67.756 26.53 
534 C 1 75.696 67.785 29.209 
535 C 1 76.157 67.845 30.549 
536 C 1 77.503 68.198 30.817 
544 C 1 76.157 67.845 26.798 
545 C 1 76.613 67.934 28.138 
546 C 1 77.934 68.372 28.406 
547 C 1 78.353 68.574 29.745 
555 C 1 75.232 67.756 24.118 
556 C 1 76.613 67.934 24.386 
557 C 1 77.062 68.051 25.726 
558 C 1 78.353 68.574 25.994 
480 C 1 67.811 74.073 30.817 
490 C 1 67.886 73.614 28.406 
491 C 1 67.989 73.161 29.745 
492 C 1 68.47 71.855 30.013 
501 C 1 67.767 74.536 25.726 
502 C 1 67.989 73.161 25.994 
503 C 1 68.121 72.716 27.334 
504 C 1 68.685 71.443 27.602 
512 C 1 68.121 72.716 23.582 
513 C 1 68.282 72.28 24.922 
4542 O 3 71.5394 73.1766 23.8761 
4758 O 3 71.8158 72.74 30.193 
4543 H 2 72.4383 73.0746 24.1889 
4544 H 2 71.1971 73.9225 24.3688 
4859 H 2 73.3239 70.4764 24.2614 
4857 O 3 73.528 71.0735 24.9812 
505 C 1 68.925 71.046 28.941 
506 C 1 69.793 69.958 29.209 
507 C 1 70.127 69.634 30.549 
508 C 1 71.243 68.802 30.817 
514 C 1 68.925 71.046 25.19 
515 C 1 69.191 70.665 26.53 
516 C 1 70.127 69.634 26.798 
517 C 1 70.481 69.333 28.138 
527 C 1 69.481 70.302 24.118 
528 C 1 70.481 69.333 24.386 
529 C 1 70.853 69.055 25.726 
4721 H 2 71.8459 73.5439 27.7162 
4719 O 3 71.245 74.2533 27.9441 
4720 H 2 70.8253 74.4876 27.1163 
4858 H 2 74.4822 71.0465 25.0522 
4809 O 3 73.0811 72.2881 27.4458 
4811 H 2 73.1873 71.5639 26.8289 
4810 H 2 73.659 72.0678 28.1764 
4763 H 2 74.7439 71.3106 30.3594 
5305 H 2 73.9673 74.8558 27.1286 
4759 H 2 72.1612 73.0534 29.3572 
4760 H 2 71.0361 72.2372 29.9571 
5423 H 2 73.2707 73.8504 30.9535 
4762 H 2 75.9193 71.9552 29.6561 
4785 O 3 76.1045 72.4412 23.6227 
4787 H 2 76.6747 72.1998 24.3526 
548 C 1 79.519 69.333 30.013 
559 C 1 78.757 68.802 27.334 
560 C 1 79.873 69.634 27.602 
561 C 1 80.207 69.958 28.941 
562 C 1 81.075 71.046 29.209 
568 C 1 78.757 68.802 23.582 
569 C 1 79.147 69.055 24.922 
570 C 1 80.207 69.958 25.19 
571 C 1 80.519 70.302 26.53 
579 C 1 80.809 70.665 24.118 
4670 H 2 76.3751 73.8796 26.1218 
4668 O 3 76.9731 73.1352 26.1876 
4669 H 2 77.691 73.4517 26.7359 
4761 O 3 75.0705 71.5449 29.4907 
5371 H 2 75.0727 74.9833 24.0939 
563 C 1 81.315 71.443 30.549 
564 C 1 81.879 72.716 30.817 
572 C 1 81.315 71.443 26.798 
573 C 1 81.53 71.855 28.138 
574 C 1 82.011 73.161 28.406 
575 C 1 82.114 73.614 29.745 
580 C 1 81.53 71.855 24.386 
581 C 1 81.718 72.28 25.726 
582 C 1 82.114 73.614 25.994 
583 C 1 82.189 74.073 27.334 
586 C 1 82.189 74.073 23.582 
587 C 1 82.233 74.536 24.922 
464 C 1 68.47 78.145 30.013 
476 C 1 68.282 77.72 27.602 
477 C 1 68.121 77.284 28.941 
478 C 1 67.811 75.927 29.209 
479 C 1 67.767 75.464 30.549 
485 C 1 68.685 78.557 24.922 
486 C 1 68.121 77.284 25.19 
487 C 1 67.989 76.839 26.53 
488 C 1 67.767 75.464 26.798 
489 C 1 67.752 75 28.138 
499 C 1 67.886 76.386 24.118 
500 C 1 67.752 75 24.386 
5306 H 2 74.7567 75.6473 26.1077 
4874 H 2 72.3496 76.3352 29.9886 
4872 O 3 71.412 76.1455 30.0224 
4873 H 2 71.2423 75.6332 29.2318 
5376 O 3 71.0651 75.3519 25.4889 
5377 H 2 71.916 75.5803 25.8632 
5378 H 2 70.8069 76.1266 24.9896 
5304 O 3 73.8885 75.5773 26.5046 
450 C 1 71.243 81.198 29.209 
451 C 1 70.853 80.945 30.549 
452 C 1 69.793 80.042 30.817 
460 C 1 70.853 80.945 26.798 
461 C 1 70.481 80.667 28.138 
462 C 1 69.481 79.698 28.406 
463 C 1 69.191 79.335 29.745 
472 C 1 70.481 80.667 24.386 
473 C 1 70.127 80.366 25.726 
474 C 1 69.191 79.335 25.994 
475 C 1 68.925 78.954 27.334 
484 C 1 68.925 78.954 23.582 
4865 H 2 77.721 77.7891 25.38 
4863 O 3 76.9903 77.5497 25.95 
4864 H 2 76.3873 77.0728 25.3798 
5372 H 2 76.5495 75.2151 23.8545 
4898 H 2 78.2659 75.6724 28.5866 
4897 H 2 77.6243 76.1278 27.2932 
4896 O 3 77.9957 75.3578 27.7239 
5370 O 3 75.8026 75.5452 24.354 
400 C 1 81.075 78.954 30.817 
406 C 1 80.809 79.335 28.406 
407 C 1 80.519 79.698 29.745 
408 C 1 79.519 80.667 30.013 
418 C 1 80.519 79.698 25.994 
419 C 1 80.207 80.042 27.334 
420 C 1 79.147 80.945 27.602 
421 C 1 78.757 81.198 28.941 
428 C 1 80.207 80.042 23.582 
429 C 1 79.873 80.366 24.922 
430 C 1 78.757 81.198 25.19 
4654 H 2 76.7489 75.9994 29.7562 
4653 O 3 77.2672 76.4194 30.4427 
4655 H 2 76.6953 77.1038 30.7904 
584 C 1 82.233 75.464 27.602 
588 C 1 82.189 75.927 25.19 
576 C 1 82.248 75 30.013 
397 C 1 82.189 75.927 28.941 
398 C 1 81.879 77.284 29.209 
399 C 1 81.718 77.72 30.549 
403 C 1 82.114 76.386 26.53 
404 C 1 81.718 77.72 26.798 
405 C 1 81.53 78.145 28.138 
415 C 1 82.011 76.839 24.118 
416 C 1 81.53 78.145 24.386 
417 C 1 81.315 78.557 25.726 
449 C 1 72.497 81.802 28.941 
436 C 1 73.387 82.066 30.013 
458 C 1 72.497 81.802 25.19 
447 C 1 74.304 82.215 27.334 
471 C 1 71.647 81.426 24.118 
457 C 1 73.843 82.155 24.922 
448 C 1 72.938 81.949 27.602 
435 C 1 74.768 82.244 29.745 
456 C 1 74.304 82.215 23.582 
446 C 1 74.768 82.244 25.994 
459 C 1 72.066 81.628 26.53 
432 C 1 77.062 81.949 26.798 
433 C 1 76.613 82.066 28.138 
445 C 1 76.157 82.155 25.726 
424 C 1 75.696 82.215 30.817 
423 C 1 77.062 81.949 30.549 
443 C 1 77.934 81.628 24.118 
431 C 1 78.353 81.426 26.53 
434 C 1 75.232 82.244 28.406 
422 C 1 77.503 81.802 29.209 
444 C 1 76.613 82.066 24.386 
509 C 1 71.647 68.574 32.157 
510 C 1 72.938 68.051 32.425 
521 C 1 73.843 67.845 31.353 
726 C 1 72.066 68.372 37.249 
727 C 1 72.497 68.198 38.589 
728 C 1 73.843 67.845 38.857 
736 C 1 72.497 68.198 34.837 
737 C 1 72.938 68.051 36.177 
738 C 1 74.304 67.785 36.445 
739 C 1 74.768 67.756 37.785 
749 C 1 73.387 67.934 33.765 
750 C 1 74.768 67.756 34.033 
522 C 1 75.232 67.756 31.621 
523 C 1 75.696 67.785 32.961 
524 C 1 77.062 68.051 33.229 
537 C 1 77.934 68.372 32.157 
740 C 1 76.157 67.845 38.053 
751 C 1 75.232 67.756 35.373 
752 C 1 76.613 67.934 35.641 
753 C 1 77.062 68.051 36.981 
754 C 1 78.353 68.574 37.249 
763 C 1 77.503 68.198 34.569 
468 C 1 67.767 74.536 33.229 
481 C 1 67.886 73.614 32.157 
482 C 1 68.282 72.28 32.425 
493 C 1 68.685 71.443 31.353 
697 C 1 67.767 74.536 36.981 
698 C 1 67.989 73.161 37.249 
699 C 1 68.121 72.716 38.589 
700 C 1 68.685 71.443 38.857 
707 C 1 67.811 74.073 34.569 
708 C 1 68.121 72.716 34.837 
709 C 1 68.282 72.28 36.177 
721 C 1 68.47 71.855 33.765 
494 C 1 69.481 70.302 31.621 
495 C 1 69.793 69.958 32.961 
496 C 1 70.853 69.055 33.229 
710 C 1 68.925 71.046 36.445 
711 C 1 69.191 70.665 37.785 
712 C 1 70.127 69.634 38.053 
722 C 1 69.191 70.665 34.033 
723 C 1 69.481 70.302 35.373 
724 C 1 70.481 69.333 35.641 
725 C 1 70.853 69.055 36.981 
735 C 1 71.243 68.802 34.569 