ITEM: TIMESTEP
2338198
ITEM: NUMBER OF ATOMS
5783
ITEM: BOX BOUNDS pp pp pp
0.0000000000000000e+00 1.5000000000000000e+02
0.0000000000000000e+00 1.5000000000000000e+02
0.0000000000000000e+00 2.5000000000000000e+02
ITEM: ATOMS id element type x y z 
4428 C 1 67.9565 66.876 5.40186 
125 C 1 67.3861 68.1756 5.27563 
115 C 1 68.5138 68.7172 7.59265 
127 C 1 69.0003 66.3547 6.13486 
128 C 1 73.3826 67.4108 7.52283 
139 C 1 71.7074 67.0101 4.95181 
141 C 1 73.8066 66.5352 6.1915 
149 C 1 73.522 65.7844 3.84334 
4438 C 1 70.5888 67.4846 4.40503 
4440 C 1 72.9641 66.464 5.00884 
4450 C 1 72.7822 65.6094 2.68212 
137 C 1 69.6998 68.1268 3.57297 
4462 C 1 74.7602 66.2349 0.923134 
147 C 1 72.6033 65.6915 1.32365 
161 C 1 73.436 66.2604 0.234287 
136 C 1 71.1469 68.1718 1.30998 
4430 C 1 69.5992 66.5421 7.35614 
138 C 1 73.3358 67.5458 2.65583 
4453 C 1 74.1515 67.7265 3.69528 
4451 C 1 72.3253 67.7249 1.81413 
4452 C 1 74.9664 65.7094 3.67377 
140 C 1 74.9165 67.9066 4.76048 
148 C 1 73.4757 68.7142 0.528855 
4441 C 1 72.7056 68.5754 6.78298 
4436 C 1 69.0745 68.6498 2.40735 
4442 C 1 75.1657 66.1275 6.16179 
151 C 1 75.7784 65.949 4.80466 
142 C 1 76.9837 67.8151 6.43656 
153 C 1 77.7361 66.7478 5.86441 
155 C 1 79.782 67.2784 7.18936 
163 C 1 75.4803 66.011 2.36456 
165 C 1 77.68 66.6921 3.48569 
4454 C 1 77.148 66.2482 4.68438 
4456 C 1 79.2029 66.8338 5.97698 
4464 C 1 76.7824 66.8205 2.38608 
4466 C 1 79.0795 67.1296 3.55019 
4477 C 1 76.7054 67.6634 1.21915 
4478 C 1 78.758 67.7409 1.24257 
167 C 1 79.8292 67.3167 4.76601 
177 C 1 79.5888 67.8148 2.4107 
143 C 1 75.854 66.373 7.4132 
4455 C 1 75.8187 68.1372 5.78096 
4457 C 1 77.7934 68.5751 7.35676 
162 C 1 75.696 67.1848 0.260508 
4468 C 1 80.8488 68.2712 4.98323 
4426 C 1 66.848 68.791 4.14482 
4414 C 1 67.7085 69.0241 6.35337 
99 C 1 67.8524 73.4834 6.83981 
111 C 1 67.1355 72.3573 4.22436 
121 C 1 66.0604 72.1223 2.40148 
4400 C 1 67.7288 74.5508 6.00075 
4410 C 1 67.2604 73.6343 3.7112 
4412 C 1 67.3323 71.2901 4.99739 
4422 C 1 66.3504 73.1411 1.50401 
113 C 1 67.7675 70.4713 5.97263 
135 C 1 67.9066 69.4616 2.09609 
4434 C 1 67.8832 69.9138 0.705259 
133 C 1 67.1479 70.9238 0.165296 
4424 C 1 66.1565 70.8982 2.95287 
123 C 1 66.8245 69.6818 3.03072 
4402 C 1 68.0972 72.3894 7.60849 
119 C 1 66.9452 73.3461 0.292987 
108 C 1 68.3501 74.0318 1.54393 
100 C 1 68.6839 71.1191 6.98679 
4449 C 1 69.9236 68.7673 1.28339 
126 C 1 73.2579 68.9135 5.51355 
4423 C 1 69.332 73.3594 2.17257 
110 C 1 70.3726 72.8508 2.85459 
4425 C 1 71.2885 72.3892 3.68212 
4429 C 1 71.6037 69.2816 7.24295 
114 C 1 71.2879 70.5225 6.58464 
96 C 1 70.0526 74.6667 4.1068 
4439 C 1 73.2295 69.4546 4.3099 
4463 C 1 74.0628 69.435 1.4692 
98 C 1 70.1722 72.5266 5.72483 
112 C 1 71.9653 71.7306 4.58468 
4411 C 1 70.0981 73.7111 5.0345 
4413 C 1 70.1139 71.3533 6.52611 
122 C 1 71.4307 71.4131 1.41158 
124 C 1 72.5479 69.914 3.245 
4427 C 1 72.2844 70.9508 5.62471 
4437 C 1 72.1965 70.8149 2.33474 
4435 C 1 70.3701 71.903 0.805565 
134 C 1 69.2087 69.3953 0.0656965 
120 C 1 69.1892 72.2887 0.404816 
150 C 1 74.7722 69.7776 2.53895 
4480 C 1 80.669 68.763 2.60776 
164 C 1 77.1775 68.9804 1.36766 
4465 C 1 75.7329 70.2545 3.34723 
152 C 1 76.7129 70.6988 4.16908 
154 C 1 78.3962 70.4687 5.98606 
166 C 1 78.6534 70.722 2.71821 
4467 C 1 77.7667 70.9267 4.90294 
156 C 1 80.228 69.3653 7.1413 
168 C 1 80.1277 71.3359 4.87145 
178 C 1 79.0232 72.5731 1.74707 
4469 C 1 78.8159 69.5112 6.97821 
4479 C 1 77.8019 69.9334 2.07196 
4481 C 1 79.5641 71.0751 3.64272 
4491 C 1 79.245 71.6325 0.784542 
180 C 1 79.1067 74.0237 4.00849 
4483 C 1 80.4293 71.5075 6.1919 
4493 C 1 78.9143 73.2399 2.90095 
4495 C 1 79.6141 74.3791 5.1983 
182 C 1 80.6086 74.5701 6.09308 
170 C 1 80.9805 72.0072 7.2646 
4503 C 1 81.1273 73.6425 2.40873 
190 C 1 80.9409 74.6904 3.25905 
169 C 1 81.202 68.8909 6.18755 
176 C 1 79.3653 70.4735 0.0404908 
179 C 1 81.2102 69.0618 3.88539 
4313 C 1 81.5248 74.3977 7.06608 
187 C 1 81.3219 69.65 1.71526 
188 C 1 81.5734 73.2526 1.16394 
4492 C 1 81.4546 71.021 2.04983 
4501 C 1 81.674 71.8817 0.951918 
189 C 1 81.8195 71.4257 3.34887 
4470 C 1 82.4936 69.7162 6.39895 
4482 C 1 81.9897 70.2979 4.18346 
181 C 1 82.8154 70.4851 5.29707 
183 C 1 83.6702 72.8453 6.24721 
191 C 1 82.8535 73.9446 4.13543 
195 C 1 83.486 74.1535 2.1921 
4484 C 1 83.5254 71.6405 5.55297 
4494 C 1 82.3362 72.722 3.77548 
4502 C 1 83.5517 73.0595 1.34832 
4490 C 1 81.7066 69.2838 0.430748 
4486 C 1 83.4512 73.7055 7.32913 
171 C 1 82.4325 70.4219 7.65702 
194 C 1 81.7413 74.4173 0.310893 
4485 C 1 81.548 73.1817 7.7084 
109 C 1 67.3034 75.055 3.71459 
4401 C 1 68.5185 75.1287 7.79123 
106 C 1 66.9995 76.0074 0.123646 
4421 C 1 67.4555 75.1002 1.31209 
97 C 1 67.5928 75.6354 5.05534 
72 C 1 67.4556 78.1691 7.2238 
85 C 1 66.1705 78.4866 6.33707 
93 C 1 67.2571 79.6134 2.49629 
95 C 1 67.1088 78.0404 4.35486 
107 C 1 66.7993 77.1398 2.13596 
4384 C 1 66.6263 79.2059 5.11509 
4386 C 1 65.4355 77.2078 6.62412 
4396 C 1 67.0203 78.2386 2.96181 
4398 C 1 67.7203 77.0408 5.18808 
4408 C 1 67.0804 75.7934 2.5012 
83 C 1 67.4902 80.3797 4.82941 
4394 C 1 67.2274 79.8215 1.10404 
4406 C 1 66.6945 77.2948 0.757527 
105 C 1 66.8839 78.6297 0.210565 
91 C 1 68.445 80.5109 0.454732 
4385 C 1 68.4755 77.665 6.2521 
4382 C 1 67.8853 80.5867 3.41047 
4372 C 1 68.4552 81.0826 5.70432 
71 C 1 68.4019 80.8187 7.19104 
87 C 1 65.9135 75.9919 7.55774 
4409 C 1 69.7791 75.5874 3.14565 
86 C 1 69.5351 75.6808 7.1161 
92 C 1 69.3887 78.7366 0.703663 
4399 C 1 70.5112 76.2617 6.29075 
84 C 1 71.169 76.8312 5.28366 
4397 C 1 71.2484 77.656 4.24327 
94 C 1 69.492 76.3804 2.0712 
4407 C 1 69.4486 77.4176 1.23735 
58 C 1 71.8015 79.3268 7.17129 
68 C 1 71.2201 80.0534 4.68403 
70 C 1 69.5802 78.4251 5.99594 
80 C 1 70.1701 79.7364 1.17095 
82 C 1 71.3016 78.4932 3.16088 
4371 C 1 72.4405 79.0861 6.03205 
4381 C 1 71.8525 80.4574 3.58122 
4383 C 1 70.5081 79.2923 5.4995 
4395 C 1 71.1479 79.3348 2.08921 
56 C 1 73.0509 79.0593 4.84347 
54 C 1 74.3718 79.7485 2.64261 
4369 C 1 73.7015 79.2139 3.67412 
42 C 1 74.389 79.5952 6.2432 
4357 C 1 73.6467 80.4073 7.03517 
66 C 1 72.2312 81.0705 2.4678 
4355 C 1 74.9987 78.8507 5.29339 
4367 C 1 75.0257 80.5967 1.79231 
36 C 1 78.8989 79.8466 0.260386 
192 C 1 80.5338 76.3937 5.15947 
40 C 1 75.6912 78.5632 4.19118 
14 C 1 78.7899 78.7576 5.99502 
26 C 1 78.6663 79.1896 3.18328 
28 C 1 77.1969 79.842 5.28243 
38 C 1 76.8864 79.3838 1.93028 
4327 C 1 78.8016 77.8964 4.95734 
4329 C 1 78.8592 79.891 6.77352 
4339 C 1 79.6281 78.825 2.34807 
4341 C 1 77.8162 79.5357 4.11213 
12 C 1 79.141 77.1583 3.89416 
24 C 1 80.7958 78.4641 1.77707 
196 C 1 80.1641 76.235 1.61 
4343 C 1 76.6885 80.0446 6.50043 
4351 C 1 77.7997 79.6061 0.963225 
4319 C 1 80.586 76.903 6.42267 
4325 C 1 79.5266 76.6821 2.70789 
4353 C 1 76.1468 78.8685 2.95372 
6 C 1 80.7404 77.336 7.69512 
4317 C 1 80.6416 75.6739 4.0572 
15 C 1 80.8699 79.9978 6.75892 
4323 C 1 81.086 75.6331 0.767233 
16 C 1 79.1622 81.1932 7.14419 
30 C 1 76.6578 80.4925 7.77037 
37 C 1 81.0359 81.1839 2.36052 
4496 C 1 83.1258 75.1121 4.7964 
4320 C 1 81.3391 79.1973 5.76612 
35 C 1 81.4175 79.8661 0.24008 
4338 C 1 81.7737 80.3241 1.44733 
4326 C 1 82.3018 80.2734 4.0921 
5 C 1 83.0633 75.9836 5.87982 
11 C 1 82.6817 76.5444 3.15884 
13 C 1 82.2284 78.163 5.26315 
23 C 1 84.1606 77.3068 1.95116 
25 C 1 82.9596 79.3445 3.3743 
184 C 1 82.8597 75.1888 7.12129 
4314 C 1 82.9209 77.3686 6.22769 
4318 C 1 82.3183 77.56 3.98366 
4324 C 1 83.1166 78.3174 2.3409 
4337 C 1 82.0763 78.1864 1.39874 
4504 C 1 83.1625 75.3641 2.63686 
7 C 1 83.1288 77.7266 7.67887 
4508 C 1 83.7179 76.5516 0.747987 
21 C 1 83.9565 75.4007 0.092277 
22 C 1 82.5588 77.3546 0.172192 
27 C 1 81.5388 81.0634 4.89495 
4393 C 1 69.7706 81.3108 0.871733 
4379 C 1 72.4496 81.2913 1.17084 
44 C 1 72.8311 81.4619 7.35827 
81 C 1 69.094 81.524 3.32852 
69 C 1 69.4058 81.8079 4.73544 
4370 C 1 70.5703 82.5907 4.98536 
4380 C 1 69.8703 82.1292 2.25745 
43 C 1 74.7933 82.0287 6.91537 
55 C 1 74.2897 82.7586 4.66304 
57 C 1 72.4612 82.2958 6.26129 
65 C 1 73.4655 83.2147 2.28084 
67 C 1 71.8218 82.8819 4.1638 
79 C 1 71.0387 83.1039 1.99391 
4356 C 1 72.9655 82.6915 5.05993 
4358 C 1 71.0472 82.543 6.34012 
4368 C 1 72.1483 83.171 2.86593 
4378 C 1 71.4554 83.3102 0.570963 
4366 C 1 74.6805 83.2899 1.55503 
59 C 1 70.5768 82.2763 7.60608 
52 C 1 75.9308 81.4455 1.28018 
39 C 1 79.3811 81.7043 4.08293 
4342 C 1 78.0159 81.8903 4.49179 
41 C 1 76.8506 81.8858 5.17037 
63 C 1 75.0332 83.0481 0.228236 
4340 C 1 79.8775 81.9068 2.77249 
4344 C 1 75.8371 81.8662 6.0655 
29 C 1 79.844 82.2618 6.3379 
4328 C 1 80.3529 81.7717 5.11624 
51 C 1 79.0032 82.7937 2.02904 
53 C 1 76.6363 83.0056 3.4479 
4330 C 1 79.1803 83.5032 6.71829 
4352 C 1 77.5535 82.8904 2.40036 
4354 C 1 75.4687 82.9426 4.02712 
4365 C 1 76.9683 82.3745 1.1916 
4350 C 1 79.2471 82.8094 0.616255 
50 C 1 77.874 82.7747 0.0322564 
118 C 1 72.4952 68.2105 10.1827 
129 C 1 73.3339 67.7286 9.15766 
4443 C 1 74.8755 67.0211 8.19359 
4416 C 1 69.6286 67.8447 8.00454 
346 C 1 73.9323 68.1706 14.1716 
358 C 1 74.4757 68.2373 11.7607 
357 C 1 73.0687 68.2788 11.4781 
359 C 1 74.8864 68.1983 13.1078 
130 C 1 74.818 67.5877 9.5591 
116 C 1 70.8972 68.616 8.40057 
347 C 1 74.4177 68.1927 15.5514 
345 C 1 72.5771 68.4565 13.9335 
344 C 1 72.1706 68.6269 12.5544 
4458 C 1 79.4351 67.9663 8.3228 
131 C 1 75.4066 67.9888 10.7222 
132 C 1 76.8038 68.2018 10.9989 
144 C 1 77.912 67.6683 8.70247 
145 C 1 77.8065 68.3832 10.0174 
4444 C 1 77.198 66.3462 8.11695 
360 C 1 76.2403 68.4659 13.3708 
361 C 1 76.6444 68.6725 14.7169 
371 C 1 77.1819 68.5566 12.3245 
88 C 1 67.4416 74.5327 8.52353 
89 C 1 67.6375 74.247 9.89742 
90 C 1 68.0512 72.9241 10.1511 
101 C 1 68.2622 72.1305 9.00405 
306 C 1 67.8169 73.8849 14.9076 
315 C 1 67.7452 74.8366 12.3007 
316 C 1 67.9913 73.4425 12.5298 
317 C 1 68.0968 72.9497 13.8701 
4388 C 1 66.1192 74.5795 7.97993 
4415 C 1 68.7014 70.0261 8.15258 
329 C 1 68.3406 72.592 11.4354 
318 C 1 68.7087 71.6607 14.1669 
4764 O 3 73.0545 71.2179 9.84601 
102 C 1 68.7788 70.7907 9.28053 
117 C 1 71.22 68.7573 9.81927 
334 C 1 71.7248 68.8163 15.0507 
330 C 1 68.9328 71.2683 11.7415 
319 C 1 68.899 71.2258 15.503 
343 C 1 71.0032 69.3751 12.2185 
103 C 1 69.355 70.4596 10.6183 
104 C 1 70.5182 69.5578 10.8661 
331 C 1 69.3079 70.9424 13.0802 
332 C 1 70.2651 69.9112 13.3491 
333 C 1 70.5782 69.6225 14.7453 
4766 H 2 73.9904 71.2425 10.0453 
4765 H 2 72.7958 70.3128 10.0198 
362 C 1 77.9465 69.2007 15.0332 
146 C 1 78.941 69.1763 10.3245 
372 C 1 78.3724 69.3017 12.6056 
157 C 1 80.0306 69.1437 9.10475 
158 C 1 80.6561 70.6421 9.68653 
373 C 1 78.6624 69.6752 13.9619 
374 C 1 79.8163 70.4737 14.2338 
381 C 1 79.2523 69.7652 11.5989 
382 C 1 80.1706 70.8108 11.8904 
383 C 1 80.4271 71.2007 13.1932 
4471 C 1 81.1284 70.0229 8.24149 
159 C 1 80.8438 71.3797 10.7912 
375 C 1 80.211 70.7758 15.5373 
384 C 1 81.2418 72.2931 13.4594 
385 C 1 81.6472 72.5894 14.7949 
160 C 1 81.6279 72.6711 11.0356 
172 C 1 82.8318 72.9617 8.61706 
173 C 1 82.3958 73.4979 10.0103 
386 C 1 82.3301 73.8125 15.1029 
389 C 1 81.7184 73.1415 12.4247 
390 C 1 82.4459 74.3402 12.7418 
391 C 1 82.5102 74.7738 14.0967 
4472 C 1 83.0762 71.4326 8.12816 
174 C 1 82.5072 74.9262 10.3237 
4374 C 1 68.0677 79.472 7.89694 
305 C 1 67.8071 75.264 14.6506 
76 C 1 67.6096 75.252 10.8981 
73 C 1 68.2612 78.7995 9.22891 
74 C 1 67.6113 77.4008 9.35876 
75 C 1 67.7322 76.6725 10.6513 
302 C 1 68.0942 77.6204 11.8096 
303 C 1 67.783 77.1685 13.1201 
304 C 1 67.7348 75.7487 13.376 
4387 C 1 66.8835 77.0797 8.23316 
290 C 1 68.183 78.038 14.2157 
291 C 1 68.1464 77.4906 15.5515 
301 C 1 68.7653 78.8717 11.6171 
4373 C 1 71.031 79.8296 8.20549 
62 C 1 68.8851 79.3576 10.3566 
289 C 1 68.9542 79.252 13.9923 
60 C 1 70.0471 80.6746 8.79112 
61 C 1 69.71 80.5085 10.1704 
278 C 1 69.5124 79.9558 15.0745 
287 C 1 70.2412 80.7213 12.4571 
288 C 1 69.3504 79.6422 12.6902 
277 C 1 70.4313 81.063 14.8846 
48 C 1 70.5177 81.115 11.1514 
4322 C 1 80.6624 80.2775 8.07134 
10 C 1 80.4351 80.7879 10.5168 
232 C 1 80.6492 80.3916 12.8711 
233 C 1 80.2434 80.7184 14.2324 
222 C 1 80.8308 79.9341 15.1862 
17 C 1 79.6951 81.0473 9.15987 
245 C 1 79.9791 81.077 11.8163 
4345 C 1 76.8889 81.2467 8.80055 
4321 C 1 81.3091 77.8963 8.80826 
9 C 1 81.4298 79.79 10.3619 
231 C 1 81.5698 79.3512 12.7403 
217 C 1 82.5994 75.2658 11.6981 
221 C 1 81.8059 78.8049 15.014 
392 C 1 82.6213 76.1288 14.4693 
220 C 1 82.068 78.4574 13.6876 
219 C 1 82.4811 77.0338 13.428 
218 C 1 82.5086 76.6402 12.0645 
4316 C 1 82.919 79.0587 8.29242 
4315 C 1 83.1149 76.2781 8.15314 
4 C 1 81.8126 78.9758 11.4053 
3 C 1 82.1906 77.635 11.1224 
2 C 1 81.8929 77.2 9.82194 
1 C 1 82.5442 75.9981 9.41152 
8 C 1 81.5072 79.4029 8.90957 
276 C 1 70.9033 81.3569 13.5548 
4359 C 1 71.7117 81.7466 8.3643 
261 C 1 74.257 82.7867 14.1965 
34 C 1 74.3217 82.8922 10.5346 
4346 C 1 74.5773 82.3182 8.26636 
262 C 1 72.8954 82.4872 14.4245 
275 C 1 72.1153 82.1144 13.3011 
46 C 1 72.2643 82.0693 9.61626 
274 C 1 72.484 82.3119 11.9461 
273 C 1 73.8198 82.7728 11.8009 
4360 C 1 69.2829 81.6824 8.01799 
47 C 1 71.6807 81.8457 10.8796 
45 C 1 73.6466 82.4461 9.3606 
260 C 1 74.7453 82.8044 12.8749 
19 C 1 77.9249 82.1166 10.9783 
250 C 1 75.1685 82.7659 15.3243 
31 C 1 78.1179 83.3618 7.84167 
4331 C 1 78.6625 82.0081 8.3134 
248 C 1 77.0092 82.4459 13.7274 
259 C 1 76.1734 82.6609 12.632 
234 C 1 79.1509 81.5727 14.4644 
4332 C 1 76.7526 83.672 8.17849 
20 C 1 76.6508 82.6345 11.2777 
18 C 1 78.1645 81.3961 9.71909 
246 C 1 78.8162 81.8836 12.1101 
249 C 1 76.5409 82.4945 15.0521 
33 C 1 75.7149 82.8593 10.316 
247 C 1 78.3624 82.0099 13.4449 
32 C 1 76.0019 82.5277 8.92722 
324 C 1 73.1339 68.5078 18.967 
325 C 1 73.5251 68.4468 20.282 
337 C 1 74.0576 68.1879 17.9183 
553 C 1 73.2492 68.5783 22.7004 
554 C 1 74.5525 68.1562 22.9638 
336 C 1 73.4438 68.1876 16.6028 
335 C 1 72.136 68.6028 16.3586 
326 C 1 74.9679 68.1493 20.5771 
314 C 1 72.6905 68.6825 21.4152 
327 C 1 75.549 68.1378 21.9194 
338 C 1 75.4099 68.1528 18.2248 
339 C 1 75.9445 68.2604 19.5604 
328 C 1 76.8186 68.5801 22.2498 
348 C 1 75.7954 68.3342 15.8116 
349 C 1 76.3407 68.3739 17.1633 
340 C 1 77.2548 68.651 19.8451 
284 C 1 67.677 74.7541 19.8616 
285 C 1 67.8709 74.2674 21.2248 
286 C 1 68.1474 72.914 21.4781 
294 C 1 67.6625 74.3032 17.3896 
295 C 1 67.8885 73.8488 18.7763 
296 C 1 68.3032 72.5496 19.0178 
307 C 1 67.901 73.365 16.2464 
525 C 1 68.3702 72.5314 22.8234 
308 C 1 68.3964 72.057 16.5033 
297 C 1 68.4395 72.0657 20.3926 
309 C 1 68.7283 71.7416 17.9425 
323 C 1 71.8183 69.0082 18.7288 
322 C 1 71.3423 69.1782 17.434 
313 C 1 71.3857 69.2066 21.1519 
526 C 1 69.0047 71.3203 23.0185 
298 C 1 69.2508 70.9319 20.6029 
312 C 1 71.0196 69.4461 19.7966 
299 C 1 69.6113 70.6388 21.9252 
300 C 1 70.6627 69.7777 22.1822 
310 C 1 69.5127 70.5694 18.2102 
311 C 1 69.9245 70.3032 19.527 
321 C 1 70.1085 69.8492 17.1477 
320 C 1 69.787 70.1557 15.8231 
341 C 1 77.7018 68.8742 21.1732 
350 C 1 77.6822 68.7905 17.4067 
351 C 1 78.0878 68.9399 18.7594 
363 C 1 78.4271 69.3066 16.3427 
342 C 1 78.92 69.4826 21.4232 
352 C 1 79.2989 69.7475 18.9956 
353 C 1 79.7495 69.9244 20.3465 
354 C 1 80.7847 70.8786 20.6861 
364 C 1 79.6041 70.1037 16.5858 
365 C 1 80.0708 70.2369 17.9551 
577 C 1 79.3739 69.6388 22.7506 
578 C 1 80.4702 70.5039 23.03 
366 C 1 81.1269 71.1418 18.2242 
355 C 1 80.9982 71.2505 22.0011 
376 C 1 81.1575 71.7962 15.8234 
367 C 1 81.4472 71.5666 19.582 
377 C 1 81.4834 72.0935 17.1933 
356 C 1 81.751 72.3652 22.2128 
368 C 1 81.9107 72.8702 19.8351 
369 C 1 82.1641 73.2125 21.1626 
370 C 1 82.49 74.5735 21.4996 
378 C 1 82.1759 73.3231 17.4716 
379 C 1 82.2239 73.7792 18.8295 
387 C 1 82.5025 74.2521 16.4704 
413 C 1 82.4246 74.9934 22.8583 
272 C 1 67.7738 75.2408 22.2272 
293 C 1 67.7943 75.6589 17.1183 
270 C 1 67.946 77.0762 20.6588 
271 C 1 67.7871 76.6466 21.9825 
282 C 1 68.0034 76.5433 18.2377 
283 C 1 67.7871 76.1218 19.59 
498 C 1 67.8376 77.5707 23.0224 
292 C 1 67.9154 76.1069 15.7663 
281 C 1 68.4703 77.8186 17.9475 
269 C 1 68.4506 78.3554 20.3648 
280 C 1 68.5783 78.3154 16.6101 
497 C 1 68.3172 78.9181 22.8093 
258 C 1 68.6841 79.276 21.4737 
268 C 1 68.7913 78.6908 19.0083 
244 C 1 70.275 80.878 22.3469 
256 C 1 70.0596 80.6626 19.9329 
257 C 1 69.6157 80.3095 21.1763 
266 C 1 69.6451 80.3981 17.4612 
267 C 1 69.4776 79.9347 18.7754 
279 C 1 69.1374 79.6109 16.3789 
206 C 1 80.2942 80.4016 21.5775 
223 C 1 80.4779 80.137 16.5348 
211 C 1 80.9 79.7969 18.9351 
441 C 1 79.8128 80.5875 22.9072 
212 C 1 79.8594 80.7353 19.1987 
210 C 1 81.1214 79.4377 17.5714 
213 C 1 79.5331 81.0033 20.5586 
224 C 1 79.3911 80.9916 16.7932 
205 C 1 81.2983 79.4006 21.3496 
380 C 1 82.421 75.112 19.1487 
204 C 1 81.604 79.0973 19.9499 
200 C 1 81.7215 78.4874 22.3271 
209 C 1 81.9374 78.2906 17.3527 
197 C 1 82.6463 75.5469 20.455 
198 C 1 82.5524 76.9234 20.7304 
199 C 1 82.3581 77.265 22.0621 
201 C 1 82.4019 76.0656 18.1119 
202 C 1 82.3194 77.4272 18.3956 
203 C 1 82.2015 77.8345 19.7252 
388 C 1 82.5126 75.6107 16.7693 
414 C 1 82.5568 76.3453 23.1183 
208 C 1 82.223 77.9089 16.0422 
207 C 1 82.6813 76.5723 15.78 
265 C 1 70.6271 81.4133 17.2591 
255 C 1 71.0786 81.6143 19.6496 
264 C 1 71.1355 81.6493 15.9377 
243 C 1 71.4849 81.6149 22.0344 
254 C 1 71.5304 81.8216 18.3019 
242 C 1 71.932 81.9424 20.73 
230 C 1 74.1471 82.5175 21.5821 
240 C 1 73.755 82.4615 19.2079 
241 C 1 73.3236 82.2978 20.4867 
252 C 1 73.2931 82.4399 16.8133 
253 C 1 72.8483 82.2766 18.1331 
469 C 1 73.6132 82.4633 22.9125 
470 C 1 72.2613 82.0518 23.1195 
251 C 1 74.6348 82.6418 16.583 
263 C 1 72.3853 82.3203 15.7051 
225 C 1 79.0214 81.2573 18.1523 
239 C 1 75.1173 82.5449 18.9215 
442 C 1 78.6656 81.3771 23.2454 
214 C 1 78.2798 81.6422 20.8305 
215 C 1 77.8487 81.8494 22.1869 
216 C 1 76.5341 82.3187 22.4478 
226 C 1 77.7374 81.7789 18.4544 
227 C 1 77.3769 81.9501 19.7888 
228 C 1 76.0617 82.3764 20.0085 
229 C 1 75.5528 82.408 21.3941 
237 C 1 76.908 82.2299 17.4052 
238 C 1 75.6126 82.6086 17.6544 
236 C 1 77.3756 82.0848 16.0572 
235 C 1 78.6652 81.5869 15.7487 
520 C 1 73.276 68.314 30.2156 
532 C 1 73.6733 68.2423 27.8204 
533 C 1 74.1651 68.0464 29.1368 
542 C 1 74.0746 68.175 25.4142 
543 C 1 74.5605 68.0629 26.7192 
541 C 1 72.7999 68.7052 25.0988 
531 C 1 72.357 68.7283 27.5199 
555 C 1 74.9601 68.0811 24.3284 
567 C 1 77.3084 68.6272 23.544 
534 C 1 75.5452 67.9577 29.4392 
535 C 1 76.0436 67.99 30.7093 
544 C 1 75.9786 68.2529 26.9743 
545 C 1 76.4491 68.0899 28.3029 
556 C 1 76.3574 68.3381 24.5624 
557 C 1 76.8186 68.3754 25.8556 
536 C 1 77.3827 68.3143 30.9509 
546 C 1 77.8458 68.441 28.5532 
547 C 1 78.2629 68.6677 29.9115 
558 C 1 78.2698 68.743 26.1787 
511 C 1 67.8424 74.7626 23.5844 
480 C 1 67.5632 74.6436 31.0433 
490 C 1 67.6241 74.1816 28.6652 
491 C 1 67.76 73.7363 29.9591 
502 C 1 67.8202 73.8345 26.2695 
503 C 1 67.9504 73.2746 27.6091 
512 C 1 68.1421 73.4027 23.9131 
513 C 1 68.214 72.9167 25.2158 
492 C 1 68.3081 72.4192 30.2014 
504 C 1 68.4818 71.9348 27.8057 
505 C 1 68.6396 71.5138 29.1536 
539 C 1 71.0534 69.4671 23.4789 
540 C 1 72.4031 68.9745 23.736 
519 C 1 71.9905 68.9372 29.9723 
530 C 1 71.9367 68.988 26.1832 
518 C 1 71.4866 69.12 28.6453 
514 C 1 68.7712 71.6591 25.4286 
515 C 1 68.9665 71.1628 26.7603 
508 C 1 71.24 69.4249 31.0632 
527 C 1 69.2142 70.8694 24.3836 
529 C 1 70.6303 69.5496 25.9306 
506 C 1 69.6443 70.4616 29.3926 
507 C 1 70.0363 70.2154 30.7512 
516 C 1 69.8384 70.0742 26.9499 
517 C 1 70.2785 69.7609 28.2699 
528 C 1 70.2952 69.879 24.6097 
559 C 1 78.674 68.8689 27.5521 
568 C 1 78.5303 69.2339 23.7952 
569 C 1 79.1187 69.232 25.0555 
548 C 1 79.466 69.4296 30.184 
560 C 1 79.8527 69.7111 27.8035 
561 C 1 80.2018 70.0497 29.164 
570 C 1 80.2646 70.0559 25.354 
571 C 1 80.5816 70.3563 26.7772 
579 C 1 80.8251 70.8494 24.3476 
562 C 1 81.2937 70.9611 29.3505 
572 C 1 81.4826 71.4847 27.0698 
563 C 1 81.5961 71.3235 30.7247 
573 C 1 81.7912 71.82 28.3826 
580 C 1 81.5808 71.9685 24.6573 
581 C 1 81.9566 72.2692 26.0352 
585 C 1 81.9656 72.7491 23.5776 
574 C 1 82.3908 73.1379 28.6564 
575 C 1 82.4945 73.5349 30.0323 
582 C 1 82.5099 73.548 26.3081 
583 C 1 82.6149 74.0358 27.6027 
586 C 1 82.4779 74.0662 23.8783 
587 C 1 82.6986 74.4521 25.2316 
564 C 1 82.2553 72.5262 31.0508 
576 C 1 82.8376 74.8501 30.3408 
501 C 1 67.5885 75.2251 25.9197 
489 C 1 67.5281 75.5837 28.3629 
500 C 1 67.6707 75.7131 24.6303 
478 C 1 67.5674 76.5347 29.425 
479 C 1 67.4791 76.033 30.7945 
486 C 1 67.9062 78.02 25.527 
487 C 1 67.7177 77.5218 26.8202 
488 C 1 67.5648 76.1004 27.0047 
499 C 1 67.73 77.127 24.3825 
477 C 1 67.9293 77.8887 29.2187 
476 C 1 68.0887 78.3428 27.8874 
464 C 1 68.1552 78.752 30.285 
485 C 1 68.5525 79.2267 25.2229 
452 C 1 69.6574 80.617 31.0875 
475 C 1 68.8161 79.5614 27.5971 
484 C 1 68.852 79.6304 23.8964 
483 C 1 69.821 80.5786 23.671 
462 C 1 69.4395 80.2051 28.6664 
463 C 1 69.0556 79.864 30.0184 
473 C 1 70.2549 80.8834 26.0434 
474 C 1 69.12 79.9924 26.3043 
472 C 1 70.629 81.1132 24.7063 
461 C 1 70.5117 81.1846 28.4271 
419 C 1 80.2869 79.688 27.6806 
428 C 1 80.4386 79.861 23.9761 
429 C 1 80.0083 80.0813 25.3157 
407 C 1 80.6809 79.3513 30.0563 
418 C 1 80.7293 79.4333 26.3249 
408 C 1 79.5394 80.2815 30.3626 
406 C 1 80.9682 79.0525 28.7247 
420 C 1 79.1316 80.451 27.9454 
430 C 1 78.884 80.8758 25.5349 
421 C 1 78.7211 80.744 29.3131 
431 C 1 78.4184 81.0408 26.8606 
400 C 1 81.3496 78.6872 31.1215 
427 C 1 81.4134 78.8368 23.6637 
417 C 1 81.7155 78.4831 26.0852 
405 C 1 81.9307 77.9889 28.5088 
399 C 1 82.0896 77.541 30.9098 
416 C 1 81.9196 78.059 24.7634 
588 C 1 82.6945 75.799 25.5559 
584 C 1 82.8102 75.3683 27.9551 
397 C 1 82.7606 75.7592 29.2686 
398 C 1 82.3553 77.1021 29.5519 
403 C 1 82.6673 76.2966 26.8611 
404 C 1 82.1817 77.5953 27.1343 
415 C 1 82.5607 76.7429 24.5227 
451 C 1 70.7473 81.4346 30.8562 
460 C 1 70.9167 81.4874 27.0965 
450 C 1 71.2831 81.7176 29.5212 
471 C 1 71.8106 81.8227 24.4563 
459 C 1 72.2098 82.0483 26.8799 
456 C 1 74.5938 82.5223 24.0457 
458 C 1 72.6818 82.1111 25.536 
436 C 1 73.4964 82.2669 30.4472 
449 C 1 72.6236 82.2087 29.2802 
448 C 1 73.1177 82.1061 27.9418 
447 C 1 74.5171 82.1363 27.7019 
457 C 1 74.1161 82.2709 25.3293 
435 C 1 74.9104 82.2811 30.1305 
434 C 1 75.3834 82.1548 28.7739 
433 C 1 76.7082 81.7627 28.5194 
422 C 1 77.5261 81.4122 29.5676 
443 C 1 78.1546 81.4581 24.5339 
445 C 1 76.3403 81.9639 26.1522 
446 C 1 75.0228 82.2028 26.4348 
432 C 1 77.2257 81.7216 27.1906 
455 C 1 76.0888 82.332 23.7695 
444 C 1 76.8751 81.9949 24.8327 
423 C 1 77.1268 81.6265 30.8455 
424 C 1 75.8546 82.1658 31.2161 
510 C 1 72.9097 68.577 32.5598 
521 C 1 73.8292 68.2442 31.517 
737 C 1 72.9758 68.7292 36.3713 
738 C 1 74.2782 68.3326 36.5923 
739 C 1 74.6746 68.229 37.9427 
749 C 1 73.343 68.4279 33.8915 
750 C 1 74.7182 68.0523 34.1364 
727 C 1 72.3923 68.691 38.7078 
728 C 1 73.7169 68.257 38.948 
522 C 1 75.1516 67.8436 31.7827 
751 C 1 75.1712 68.1138 35.5356 
523 C 1 75.6424 67.936 33.1037 
740 C 1 76.0676 68.2918 38.1714 
752 C 1 76.5638 68.1795 35.7588 
753 C 1 77.0063 68.3294 37.0755 
524 C 1 76.9987 68.23 33.3838 
763 C 1 77.3961 68.4386 34.6945 
537 C 1 77.8309 68.4897 32.3144 
481 C 1 67.7468 74.1293 32.3702 
482 C 1 68.1432 72.7943 32.641 
698 C 1 67.9831 73.6367 37.5215 
699 C 1 67.9729 73.0882 38.8452 
707 C 1 67.5429 74.5315 34.777 
708 C 1 67.8426 73.1604 35.1016 
709 C 1 68.1318 72.7324 36.4719 
721 C 1 68.2205 72.3374 33.9846 
697 C 1 67.6345 74.9985 37.1526 
493 C 1 68.5093 71.9385 31.5473 
736 C 1 72.535 68.8124 34.9883 
726 C 1 72.0587 68.9981 37.4151 
509 C 1 71.6571 69.215 32.3479 
735 C 1 71.2959 69.4692 34.7321 
710 C 1 68.8259 71.5128 36.6319 
722 C 1 69.0004 71.1619 34.2243 
711 C 1 69.0201 71.079 38.0007 
723 C 1 69.3704 70.8535 35.5582 
725 C 1 70.7835 69.6396 37.0999 
494 C 1 69.3803 70.8753 31.8542 
496 C 1 70.8806 69.7393 33.3891 
495 C 1 69.7236 70.6065 33.1511 
712 C 1 70.0324 70.1147 38.2693 
724 C 1 70.4946 69.9425 35.7537 
754 C 1 78.2849 68.7866 37.4344 
755 C 1 78.7074 68.9027 38.7661 
764 C 1 78.6778 68.9581 34.9899 
765 C 1 79.0787 69.2151 36.3715 
538 C 1 79.0404 69.2507 32.5543 
549 C 1 79.7955 69.8494 31.548 
550 C 1 80.9402 70.6897 31.7498 
766 C 1 80.2849 69.9351 36.6935 
767 C 1 80.6142 70.2164 38.0049 
773 C 1 79.4835 69.4717 33.9392 
774 C 1 80.6302 70.2682 34.1931 
775 C 1 81.0181 70.5075 35.5645 
756 C 1 79.872 69.6351 39.0437 
551 C 1 81.2664 70.9524 33.1034 
768 C 1 81.4837 71.3117 38.2473 
776 C 1 81.8188 71.6391 35.8867 
777 C 1 82.0932 72.1233 37.2125 
552 C 1 81.9845 72.1253 33.447 
781 C 1 82.2272 72.5008 34.8231 
565 C 1 82.441 72.9847 32.4088 
566 C 1 82.6982 74.374 32.6734 
778 C 1 82.495 73.4465 37.4924 
779 C 1 82.5766 73.9216 38.8053 
782 C 1 82.6204 73.8453 35.0506 
783 C 1 82.6565 74.3724 36.3968 
609 C 1 82.6937 74.7639 33.9969 
468 C 1 67.5965 75.0397 33.4585 
696 C 1 67.5904 75.4728 35.8679 
466 C 1 67.7153 76.9447 31.8783 
467 C 1 67.7903 76.3889 33.1982 
683 C 1 67.8535 77.3111 37.9783 
684 C 1 67.6009 75.9112 38.2767 
694 C 1 68.0586 77.3033 34.2518 
695 C 1 67.9036 76.809 35.574 
682 C 1 68.0139 77.742 36.6252 
465 C 1 68.0527 78.2664 31.5614 
693 C 1 68.2702 78.6645 33.9857 
681 C 1 68.5421 78.9869 36.32 
454 C 1 68.483 79.0911 32.6346 
671 C 1 68.7379 79.3935 38.7822 
680 C 1 68.7821 79.4139 35.0121 
670 C 1 69.0147 79.8061 37.4465 
453 C 1 69.3428 80.2313 32.3889 
669 C 1 70.0567 80.7181 37.2029 
679 C 1 69.7348 80.4211 34.8446 
440 C 1 70.092 80.7873 33.5445 
668 C 1 70.4884 80.9829 35.8953 
656 C 1 70.8891 81.1645 38.2541 
402 C 1 80.0385 80.1409 32.7217 
615 C 1 80.5293 80.0075 38.8203 
624 C 1 80.4105 79.8111 35.128 
625 C 1 80.1146 80.2487 36.4593 
637 C 1 79.6844 80.4273 34.0645 
614 C 1 80.7919 79.5954 37.5218 
401 C 1 81.0764 79.1355 32.4798 
409 C 1 79.2838 80.5879 31.6656 
626 C 1 78.9196 80.9919 36.6742 
638 C 1 78.495 81.1542 34.3178 
410 C 1 78.0253 81.2423 31.9311 
623 C 1 81.2619 78.7402 34.8649 
613 C 1 81.6747 78.4591 37.2643 
396 C 1 81.4893 78.3285 33.5311 
612 C 1 81.8414 77.9927 35.9317 
600 C 1 81.9325 77.5587 38.3097 
393 C 1 82.8222 75.3395 31.6373 
394 C 1 82.5049 76.7234 31.967 
395 C 1 82.2099 77.1133 33.2579 
599 C 1 82.3395 76.1957 38.0571 
610 C 1 82.4807 76.1515 34.2711 
611 C 1 82.4599 76.6582 35.6689 
784 C 1 82.5979 75.7704 36.7558 
439 C 1 71.2278 81.6184 33.3139 
667 C 1 71.7526 81.6979 35.6425 
438 C 1 71.6351 81.7812 31.9565 
655 C 1 72.1922 81.6576 38.0224 
666 C 1 72.1471 81.9396 34.3127 
426 C 1 73.9565 82.3292 32.8336 
437 C 1 73.0101 82.1482 31.7728 
643 C 1 74.4446 82.0745 38.8585 
652 C 1 74.4197 82.1385 35.1605 
653 C 1 73.973 82.1052 36.4622 
654 C 1 72.5975 81.888 36.7078 
665 C 1 73.4955 82.1615 34.123 
642 C 1 74.8918 82.1516 37.4983 
627 C 1 78.574 81.2515 38.0252 
639 C 1 78.0599 81.377 35.6154 
411 C 1 77.5902 81.5455 33.2789 
412 C 1 76.2963 81.942 33.6033 
425 C 1 75.391 82.2328 32.5453 
628 C 1 77.2708 81.7115 38.3158 
640 C 1 76.7431 81.7746 35.9466 
641 C 1 76.2784 81.9417 37.2752 
651 C 1 75.7992 81.9738 34.922 
706 C 1 72.7584 68.1406 43.7651 
716 C 1 73.2631 68.136 41.3452 
717 C 1 73.7093 67.9249 42.6857 
729 C 1 74.2198 68.0719 40.2604 
945 C 1 73.2033 68.1342 45.0878 
946 C 1 74.6038 68.0012 45.4173 
932 C 1 72.3119 68.3125 46.1151 
715 C 1 71.926 68.6203 41.096 
705 C 1 71.523 68.7217 43.4782 
718 C 1 75.0682 67.9696 42.9706 
947 C 1 75.0856 68.0724 46.7624 
719 C 1 75.5583 68.1611 44.325 
720 C 1 76.8947 68.4361 44.6018 
730 C 1 75.652 67.9197 40.5887 
731 C 1 76.0745 68.0055 41.9419 
741 C 1 76.5719 68.1962 39.5021 
959 C 1 77.3093 68.5632 45.9598 
732 C 1 77.4187 68.3091 42.197 
742 C 1 77.9108 68.4748 39.8116 
733 C 1 77.8641 68.4921 43.5473 
743 C 1 78.3458 68.6525 41.153 
700 C 1 68.5218 71.7786 39.0847 
676 C 1 67.5892 74.3559 42.2087 
677 C 1 67.6278 73.9236 43.54 
686 C 1 67.765 73.9501 39.8637 
687 C 1 67.7757 73.4682 41.1845 
903 C 1 67.61 74.2081 46.019 
904 C 1 67.9677 72.8686 46.2297 
678 C 1 68.1495 72.6079 43.8731 
688 C 1 68.2206 72.185 41.4424 
917 C 1 68.4013 72.0515 45.1621 
664 C 1 67.458 74.7553 44.6996 
689 C 1 68.4909 71.7374 42.7605 
5027 H 2 73.0181 71.9913 41.8032 
918 C 1 69.1445 70.8753 45.4 
714 C 1 71.5315 68.9652 39.7805 
931 C 1 71.1401 69.022 45.8641 
704 C 1 71.0729 68.9893 42.1656 
701 C 1 68.7557 71.3793 40.4026 
692 C 1 70.753 69.2733 44.523 
690 C 1 69.2681 70.5784 43.0049 
691 C 1 69.682 70.1875 44.3433 
702 C 1 69.6204 70.2172 40.6784 
703 C 1 69.9444 69.8427 41.996 
713 C 1 70.3454 69.703 39.5792 
5025 O 3 73.6099 71.9784 41.0509 
5476 H 2 73.5908 71.5942 44.7312 
5475 O 3 74.5204 71.3794 44.8087 
5477 H 2 74.7435 71.6017 45.7126 
5148 O 3 72.9137 74.6394 41.0518 
5150 H 2 73.5038 74.8847 41.7644 
5149 H 2 73.3692 73.9316 40.596 
919 C 1 69.2846 70.432 46.6781 
5345 H 2 71.6718 73.4967 44.2736 
4959 O 3 70.9259 73.7055 42.7426 
4960 H 2 71.4851 73.8214 41.9745 
4961 H 2 70.3589 74.4767 42.7453 
5344 H 2 71.5721 72.6005 45.4896 
5343 O 3 72.1872 73.1468 45.0003 
5026 H 2 74.4688 71.7809 41.4246 
4700 H 2 75.5529 71.3407 43.3983 
4537 H 2 75.4271 73.818 44.819 
4536 O 3 75.3103 74.1569 43.9314 
960 C 1 78.6479 68.9825 46.2277 
4699 H 2 76.7931 70.8452 42.6855 
734 C 1 79.1753 68.969 43.8646 
744 C 1 79.5818 69.2758 41.4319 
745 C 1 79.9343 69.5454 42.7862 
746 C 1 80.9429 70.4765 43.0839 
757 C 1 80.2919 69.9243 40.4088 
969 C 1 79.5754 69.2566 45.1937 
970 C 1 80.6682 70.144 45.4338 
971 C 1 80.9505 70.4733 46.7748 
4698 O 3 76.1152 71.5197 42.6447 
4538 H 2 75.4205 73.3922 43.3662 
747 C 1 81.2416 70.8969 44.3682 
5651 H 2 78.2355 74.4994 43.9558 
5649 O 3 79.0978 74.7322 44.2999 
5650 H 2 79.6778 74.6947 43.5394 
758 C 1 81.2688 70.9458 40.6724 
759 C 1 81.5391 71.2499 42.0314 
769 C 1 81.8194 71.7475 39.5788 
748 C 1 82.0304 72.0551 44.685 
760 C 1 82.2638 72.4327 42.3114 