ITEM: TIMESTEP
2337856
ITEM: NUMBER OF ATOMS
5723
ITEM: BOX BOUNDS pp pp pp
0.0000000000000000e+00 1.5000000000000000e+02
0.0000000000000000e+00 1.5000000000000000e+02
0.0000000000000000e+00 2.5000000000000000e+02
ITEM: ATOMS id element type x y z 
135 C 1 68.3342 66.0978 1.93171 
4434 C 1 68.4533 67.0489 0.892351 
4436 C 1 68.5463 65.2026 2.90173 
112 C 1 68.6805 68.5094 4.29383 
133 C 1 68.1096 68.418 1.04993 
137 C 1 69.039 64.3303 3.79433 
139 C 1 71.1122 63.488 5.245 
4438 C 1 70.0664 63.7385 4.49625 
4440 C 1 72.2891 63.3611 5.93283 
4453 C 1 73.077 64.7094 4.38096 
138 C 1 71.9965 65.3614 3.76282 
4451 C 1 71.3733 64.8203 2.66509 
4450 C 1 73.3016 65.5483 0.529477 
136 C 1 70.7666 65.1693 1.50173 
127 C 1 72.2233 66.2901 6.55394 
141 C 1 73.3962 63.6146 6.7674 
4449 C 1 70.6649 66.097 0.489478 
4441 C 1 73.5112 65.8793 6.05875 
149 C 1 73.9544 64.7788 1.37013 
125 C 1 71.3242 66.4329 4.28668 
4428 C 1 71.3035 66.798 5.62431 
128 C 1 74.011 64.8556 6.9119 
126 C 1 74.0743 66.4828 4.94256 
4439 C 1 74.0242 67.2029 3.82529 
4426 C 1 70.6019 67.2282 3.45378 
140 C 1 74.3382 64.3851 4.87037 
4452 C 1 74.7291 64.3439 2.36721 
124 C 1 73.4466 67.8199 2.79439 
148 C 1 74.732 67.8191 0.554841 
114 C 1 70.4947 67.9342 5.9798 
4437 C 1 72.6402 68.5713 2.05151 
4429 C 1 70.4817 68.2354 7.33041 
4442 C 1 73.9706 62.7136 7.70261 
123 C 1 70.1094 68.2401 2.79007 
147 C 1 72.093 66.5972 0.0846916 
134 C 1 69.6136 66.9809 0.0609095 
4455 C 1 75.5027 64.6135 5.44421 
4466 C 1 79.439 63.4094 3.44132 
151 C 1 75.7522 64.0807 3.15575 
142 C 1 76.5209 65.1977 6.24081 
153 C 1 77.9199 65.4156 4.28258 
163 C 1 76.6537 64.4305 1.12772 
165 C 1 78.4871 63.3021 2.50549 
4454 C 1 76.9191 64.5592 3.73269 
4456 C 1 77.6974 65.7405 5.70744 
4464 C 1 77.3372 63.6419 1.92825 
4477 C 1 77.8151 67.058 1.016 
155 C 1 78.6946 66.4952 6.4661 
164 C 1 78.381 66.4749 2.13602 
4479 C 1 78.8613 66.1176 3.42002 
156 C 1 79.9391 67.0426 5.98883 
166 C 1 80.0855 66.5473 3.92136 
167 C 1 80.4238 63.8868 4.176 
4457 C 1 76.3152 65.5061 7.672 
4478 C 1 80.3428 68.0791 0.900395 
175 C 1 78.7086 68.1409 0.411066 
4469 C 1 79.8394 68.2054 5.15246 
4468 C 1 81.2422 64.4268 5.09793 
4458 C 1 78.4281 66.7971 7.80954 
4463 C 1 75.6158 68.596 1.19255 
162 C 1 76.7226 66.6336 0.178526 
4462 C 1 76.2423 65.3473 0.122015 
4470 C 1 81.2604 66.5532 6.57426 
169 C 1 81.6847 65.2792 6.08026 
4481 C 1 81.2662 66.955 4.33331 
171 C 1 81.9432 67.2341 7.61185 
168 C 1 82.2746 67.5076 5.00048 
177 C 1 81.2753 67.6313 1.73433 
4480 C 1 82.0769 67.9483 2.77493 
4483 C 1 82.6188 68.6746 5.57795 
185 C 1 83.9209 68.0568 0.253189 
4425 C 1 67.8382 68.75 3.33536 
113 C 1 66.1022 69.1817 7.41593 
108 C 1 66.4964 71.6717 1.72381 
111 C 1 65.2642 71.0297 5.70561 
4410 C 1 65.468 72.032 4.85391 
4412 C 1 65.3858 69.9729 6.57915 
110 C 1 67.3738 69.0791 2.07286 
4423 C 1 66.8458 70.3646 1.825 
109 C 1 65.7429 73.2158 4.20001 
4421 C 1 66.6608 73.0326 1.48159 
106 C 1 67.3417 74 0.389064 
119 C 1 68.3403 71.6604 0.485511 
4422 C 1 68.7391 71.79 1.83314 
4408 C 1 66.4019 74.3807 3.65114 
107 C 1 66.7401 74.3298 2.27152 
4386 C 1 67.0514 74.82 5.91855 
87 C 1 67.7822 74.9575 7.0993 
121 C 1 69.1923 70.7674 2.57497 
122 C 1 71.5588 68.9884 1.33899 
4427 C 1 69.7867 68.8141 5.13339 
4402 C 1 69.3484 71.6862 7.4922 
120 C 1 69.0614 69.3196 0.312672 
99 C 1 69.4391 72.9269 6.80715 
100 C 1 69.5791 70.509 6.82501 
4435 C 1 70.4273 69.1938 0.686241 
4424 C 1 69.5573 69.4816 2.61586 
97 C 1 71.2099 72.4165 5.02944 
4400 C 1 70.7734 73.1224 6.23307 
4413 C 1 69.9471 70.219 5.53314 
4411 C 1 71.1906 70.6936 3.44279 
98 C 1 70.6851 71.1354 4.66737 
96 C 1 71.4895 70.9663 2.17599 
4409 C 1 71.5293 72.022 1.36879 
4398 C 1 72.0053 73.131 4.14445 
94 C 1 71.1415 73.1243 0.744597 
95 C 1 72.4219 73.8339 3.14534 
4388 C 1 68.8508 74.0885 7.37945 
86 C 1 71.5781 74.1587 6.83858 
4399 C 1 72.4613 74.8634 6.02429 
4396 C 1 72.3424 74.8193 2.25746 
4407 C 1 70.6352 74.2345 0.22681 
150 C 1 76.5475 69.4637 1.54298 
4465 C 1 77.6594 70.1864 1.8638 
152 C 1 79.0366 70.5938 2.03678 
4467 C 1 79.5755 69.9699 3.25373 
154 C 1 79.5185 69.1969 4.3127 
176 C 1 79.8429 70.6534 0.820848 
4491 C 1 80.3138 71.9114 0.418515 
178 C 1 80.5787 73.2147 0.563735 
4493 C 1 80.7432 74.4536 1.02923 
4489 C 1 79.895 69.3734 0.0177298 
179 C 1 82.7869 68.9047 3.45168 
193 C 1 83.5384 73.4078 0.534372 
170 C 1 82.4995 69.6933 6.48305 
4484 C 1 82.7525 71.112 6.06513 
4503 C 1 83.9427 72.2768 4.13449 
188 C 1 83.8043 72.1892 2.66941 
4501 C 1 83.6744 70.9915 1.97472 
187 C 1 84.4323 69.734 2.19888 
4482 C 1 83.1718 70.0127 4.01311 
181 C 1 83.3014 71.1764 4.77418 
183 C 1 82.2397 71.9396 7.11874 
4492 C 1 85.3174 69.496 3.23067 
4502 C 1 83.867 73.3784 1.87994 
4486 C 1 82.2133 73.3204 7.4038 
190 C 1 84.4842 73.4567 4.61275 
189 C 1 86.2606 69.9245 4.12695 
186 C 1 83.1989 70.7589 0.477653 
4490 C 1 83.8089 69.2748 0.902769 
4494 C 1 86.6458 70.8814 4.9681 
4485 C 1 81.7621 69.6703 7.71391 
5 C 1 86.2872 74.2511 6.87143 
4496 C 1 86.669 73.1173 6.33782 
191 C 1 86.8656 72.0362 5.65738 
184 C 1 82.6565 74.4953 6.74532 
195 C 1 84.3812 74.5886 2.3843 
4317 C 1 84.7569 74.663 5.04335 
4313 C 1 82.4405 74.9453 5.46155 
4406 C 1 67.3791 75.2556 1.35915 
85 C 1 66.8245 75.3442 4.59757 
4384 C 1 67.0941 76.6962 4.37867 
4385 C 1 67.3207 77.6107 5.40524 
83 C 1 67.0786 77.2194 3.0098 
70 C 1 67.5216 78.8987 4.86688 
72 C 1 67.8065 77.4467 6.72491 
4382 C 1 67.8867 77.5324 1.89428 
105 C 1 68.0336 76.447 0.99971 
4374 C 1 68.5159 78.5427 7.42819 
4383 C 1 68.3966 79.7546 4.38836 
81 C 1 68.5646 78.7695 1.86499 
4387 C 1 67.9764 76.2505 7.62162 
71 C 1 68.9053 79.7624 6.9105 
93 C 1 71.9224 75.9345 1.62093 
84 C 1 73.1583 75.7755 5.36636 
4394 C 1 71.4917 77.2327 1.29536 
91 C 1 70.5257 77.3256 0.274969 
4397 C 1 73.7214 76.7108 4.65841 
58 C 1 71.6231 78.1317 6.66726 
82 C 1 73.3909 77.6248 3.73329 
4371 C 1 72.8128 78.3579 6.02831 
4395 C 1 72.7032 78.4239 2.9477 
56 C 1 73.6143 78.9686 5.17758 
80 C 1 71.7565 78.4491 1.96936 
4393 C 1 70.9321 79.5125 1.52171 
4373 C 1 70.7618 78.9625 7.22384 
4380 C 1 69.5047 79.791 1.73479 
68 C 1 69.5048 80.3067 3.96295 
4369 C 1 74.1576 79.7996 4.22871 
78 C 1 71.5225 80.4472 0.385967 
4381 C 1 70.7752 80.5476 3.66769 
4372 C 1 69.288 80.8637 6.20268 
79 C 1 69.3166 81.1611 1.21532 
64 C 1 72.9361 80.8822 0.866026 
4379 C 1 73.1529 80.8148 2.30216 
66 C 1 71.9379 80.629 3.04296 
54 C 1 74.4125 80.6442 3.12709 
4405 C 1 69.2681 76.4177 0.0676762 
43 C 1 75.2743 79.773 7.02726 
4344 C 1 75.6415 78.7218 6.31639 
28 C 1 78.955 79.1314 4.93697 
38 C 1 77.8879 79.0973 3.1317 
4343 C 1 78.4798 78.9129 6.19586 
4351 C 1 78.8468 78.6252 2.27598 
37 C 1 79.1749 77.1745 2.23086 
4340 C 1 78.5089 76.2772 3.06534 
39 C 1 77.6669 76.2581 4.12956 
41 C 1 76.1443 77.6695 5.7213 
4342 C 1 76.8765 76.866 5.00812 
36 C 1 79.3662 79.4998 1.25122 
30 C 1 78.018 79.3363 7.36107 
4338 C 1 80.3181 76.8484 1.44383 
4341 C 1 79.6809 79.8378 4.01854 
4353 C 1 77.1723 79.8503 3.92443 
4339 C 1 80.2166 80.4798 1.75354 
26 C 1 80.5544 80.4851 3.10228 
35 C 1 80.8253 77.7405 0.451065 
180 C 1 80.942 75.5865 1.80868 
24 C 1 81.0555 81.1273 0.788503 
4349 C 1 79.897 78.8825 0.0879 
40 C 1 76.5406 81.0653 4.07915 
194 C 1 83.2732 76.0239 0.0925705 
4495 C 1 81.6821 75.5633 3.00501 
182 C 1 82.0355 75.2831 4.25935 
4323 C 1 83.4344 76.6306 1.3506 
196 C 1 83.0827 77.9717 1.56331 
4320 C 1 83.3261 79.3699 5.81081 
6 C 1 83.9645 78.219 6.5023 
11 C 1 84.5391 76.9318 3.34941 
13 C 1 83.5999 79.2293 4.39079 
192 C 1 84.721 75.941 5.28415 
4318 C 1 84.3745 78.0772 4.02742 
4319 C 1 84.643 77.1882 5.83295 
4325 C 1 82.7211 79.153 2.12354 
4504 C 1 84.2061 75.9826 2.39519 
12 C 1 82.8925 79.8689 3.33862 
15 C 1 82.4095 80.1494 6.57988 
4508 C 1 84.4489 79.4811 0.0865801 
23 C 1 84.6837 80.7243 0.799374 
4337 C 1 82.3539 80.6706 0.572763 
4327 C 1 81.8814 80.8295 3.60918 
4314 C 1 85.4564 75.0906 7.52385 
22 C 1 82.9791 79.425 0.0286516 
4322 C 1 81.9126 79.7218 7.77103 
63 C 1 74.9652 81.9504 0.225426 
4378 C 1 70.4642 81.5924 0.456301 
69 C 1 69.9221 81.832 5.43404 
4370 C 1 71.0867 82.4917 4.90277 
57 C 1 73.283 83.5245 5.62399 
67 C 1 71.5388 82.7999 3.64501 
4358 C 1 72.1342 82.6392 5.85237 
4368 C 1 72.3756 83.0989 2.65768 
65 C 1 73.5096 83.1369 1.92179 
59 C 1 72.4535 81.8941 7.0864 
4356 C 1 73.6649 84.3848 4.58823 
4359 C 1 73.794 82.3335 7.48401 
44 C 1 74.3091 83.2728 6.582 
55 C 1 74.8352 84.8911 4.10503 
4366 C 1 74.786 82.8013 1.32809 
49 C 1 80.4841 82.2508 0.111127 
50 C 1 78.1244 82.2916 0.488634 
4367 C 1 75.5828 81.439 3.0959 
4355 C 1 76.6668 81.9309 5.10399 
4357 C 1 75.6329 83.6496 6.39828 
4354 C 1 76.0939 84.902 3.58819 
42 C 1 76.6966 82.794 6.17232 
52 C 1 75.9432 82.579 2.27544 
51 C 1 79.2228 84.0302 1.49167 
53 C 1 77.3232 84.719 3.15359 
4330 C 1 79.3822 83.8325 6.74635 
4352 C 1 77.9494 83.9576 2.18415 
4365 C 1 77.3091 82.7791 1.64015 
4332 C 1 77.4747 82.4647 7.30173 
4350 C 1 79.3886 82.9277 0.531956 
31 C 1 78.8238 82.722 7.49411 
29 C 1 80.6202 83.4753 6.15411 
16 C 1 81.0077 82.2132 6.76636 
4324 C 1 83.4819 81.5102 0.992161 
4328 C 1 81.3703 83.8524 5.06236 
4329 C 1 81.8523 81.3523 6.07975 
14 C 1 82.0211 81.6351 4.69462 
25 C 1 83.3062 82.6358 1.80973 
4326 C 1 82.8991 83.2673 2.88115 
27 C 1 82.2064 83.6225 3.98133 
4414 C 1 67.1575 68.6365 7.93666 
115 C 1 68.4776 68.2074 8.09389 
4416 C 1 69.1405 67.0108 8.30548 
4430 C 1 72.0526 66.4132 7.93487 
129 C 1 73.0068 66.3142 9.06333 
346 C 1 73.6426 66.4532 14.1152 
118 C 1 72.3451 66.9079 10.2107 
357 C 1 72.6885 66.6483 11.5417 
345 C 1 72.3452 67.0332 13.8443 
116 C 1 70.7642 67.086 8.4127 
358 C 1 74.0289 66.0997 11.744 
130 C 1 74.3371 65.8524 9.30727 
347 C 1 74.1919 66.5122 15.4773 
359 C 1 74.5625 66.0846 13.0517 
344 C 1 71.8762 67.1702 12.5154 
117 C 1 71.1178 67.5564 9.79848 
334 C 1 71.6461 67.6853 14.9125 
343 C 1 70.8539 68.1284 12.1509 
131 C 1 74.9299 65.9765 10.5946 
4443 C 1 74.952 64.983 8.16436 
143 C 1 74.9932 63.4376 8.56751 
104 C 1 70.5544 68.4663 10.7968 
333 C 1 70.6157 68.6426 14.5616 
4444 C 1 75.6376 62.8803 9.65728 
132 C 1 76.3182 66.207 10.855 
360 C 1 75.9819 66.2879 13.2661 
361 C 1 76.4704 66.2687 14.5968 
144 C 1 77.241 66.2208 8.36588 
371 C 1 76.811 66.4341 12.1465 
145 C 1 77.2173 66.527 9.73297 
362 C 1 77.8472 66.7297 14.8343 
372 C 1 78.0733 67.0315 12.4374 
146 C 1 78.3986 67.308 10.0715 
373 C 1 78.6342 67.2726 13.726 
157 C 1 79.1466 67.565 8.83077 
381 C 1 78.8113 67.6592 11.359 
374 C 1 79.6266 68.2674 13.963 
158 C 1 80.253 68.4241 9.10515 
382 C 1 79.819 68.6081 11.5228 
375 C 1 80.0195 68.5978 15.2705 
4472 C 1 83.1557 66.7113 8.06008 
4471 C 1 81.3262 68.4132 8.17182 
306 C 1 68.6392 73.3172 14.7755 
315 C 1 68.6061 74.2516 12.1013 
305 C 1 68.4978 74.7066 14.5282 
4415 C 1 69.5377 69.344 7.81309 
317 C 1 68.7885 72.3889 13.7169 
316 C 1 68.8148 72.8608 12.3521 
329 C 1 69.2238 72.1059 11.3293 
90 C 1 69.3052 72.5598 9.96589 
101 C 1 69.2931 71.5215 8.98452 
318 C 1 69.2071 71.038 13.9797 
319 C 1 69.4008 70.5638 15.3137 
102 C 1 69.6522 70.108 9.17704 
330 C 1 69.4767 70.637 11.5544 
103 C 1 69.8622 69.7293 10.5202 
331 C 1 69.6335 70.1862 12.8957 
332 C 1 70.2941 68.9144 13.2202 
89 C 1 69.2062 73.9676 9.74415 
88 C 1 69.7315 74.4956 8.51768 
4401 C 1 71.0999 74.5347 8.13406 
76 C 1 68.7686 74.8158 10.7564 
383 C 1 80.2093 68.9971 12.8508 
159 C 1 80.3424 69.1983 10.367 
376 C 1 80.7467 69.8329 15.466 
384 C 1 80.836 70.1908 13.1033 
160 C 1 81.0179 70.5311 10.5823 
385 C 1 81.0765 70.69 14.3831 
389 C 1 81.1394 71.0653 11.9197 
173 C 1 81.3229 71.4265 9.53647 
390 C 1 81.4883 72.4363 12.2079 
174 C 1 81.4316 72.9008 9.79688 
386 C 1 81.3654 72.0159 14.6603 
391 C 1 81.4776 72.8857 13.5425 
172 C 1 81.7917 71.0026 8.24073 
217 C 1 81.4094 73.4012 11.1364 
1 C 1 81.8143 73.763 8.74334 
392 C 1 81.5486 74.3428 13.7338 
207 C 1 81.6458 74.8333 15.1004 
218 C 1 81.4952 74.8645 11.3074 
292 C 1 68.4642 75.7483 15.4805 
304 C 1 68.4481 75.1838 13.1422 
74 C 1 68.4859 76.6924 8.97817 
75 C 1 68.6178 76.1465 10.3382 
303 C 1 68.6491 76.5579 12.7825 
291 C 1 68.7126 77.1149 15.1686 
302 C 1 68.6828 77.0612 11.4333 
264 C 1 72.0561 80.856 15.4461 
290 C 1 68.9956 77.4573 13.8435 
73 C 1 68.8656 78.0587 8.81141 
301 C 1 69.256 78.3217 11.1923 
62 C 1 69.4885 78.8364 9.83226 
289 C 1 69.7678 78.6787 13.6118 
278 C 1 70.335 79.3672 14.6521 
288 C 1 69.8824 79.05 12.2706 
61 C 1 70.5104 79.7628 9.59397 
287 C 1 70.851 80.0014 12.008 
60 C 1 70.9398 79.9451 8.20232 
277 C 1 71.4111 80.2269 14.3903 
48 C 1 71.2564 80.2992 10.6771 
276 C 1 71.772 80.453 13.0363 
47 C 1 72.506 80.8638 10.415 
46 C 1 73.0075 80.9184 9.12347 
4360 C 1 72.0192 80.9004 8.0308 
275 C 1 72.9973 81.0954 12.7475 
246 C 1 79.5316 80.87 11.4542 
234 C 1 79.8687 80.5421 13.9011 
4345 C 1 77.8317 80.2132 8.33171 
235 C 1 79.4912 80.8454 15.2219 
245 C 1 80.5061 79.8798 11.2458 
17 C 1 80.6837 80.4131 8.60206 
4346 C 1 75.4274 80.8057 7.87023 
18 C 1 79.0897 80.8429 8.96879 
247 C 1 79.0667 81.0645 12.8126 
233 C 1 80.6318 79.3651 13.5707 
10 C 1 80.8899 79.5526 9.96806 
232 C 1 80.8536 78.9396 12.2818 
222 C 1 80.9082 78.477 14.6093 
2 C 1 82.1704 75.1558 9.03398 
4315 C 1 83.003 75.4233 7.82794 
231 C 1 81.3702 77.6166 11.9939 
221 C 1 81.3356 77.1096 14.3328 
219 C 1 81.5715 75.3035 12.675 
8 C 1 82.5384 78.7187 8.52333 
3 C 1 81.8259 75.8492 10.2855 
4316 C 1 84.5407 77.0923 8.56976 
220 C 1 81.3824 76.6659 12.9971 
4 C 1 81.7255 77.2381 10.5843 
4321 C 1 83.7195 78.0985 7.96934 
7 C 1 84.369 75.759 8.10871 
9 C 1 81.7675 78.4092 9.75704 
208 C 1 81.6031 76.2 15.441 
274 C 1 73.4804 81.2704 11.4206 
263 C 1 73.3503 81.4406 15.1748 
262 C 1 73.7962 81.6094 13.808 
45 C 1 74.353 81.5209 8.67807 
273 C 1 74.7473 81.8378 11.1461 
260 C 1 75.6415 81.9916 12.2515 
249 C 1 77.4379 81.8922 14.3978 
34 C 1 75.181 82.0677 9.85643 
20 C 1 77.4873 81.8841 10.5675 
4331 C 1 80.0634 81.8281 7.99485 
32 C 1 76.7907 81.3594 8.17515 
248 C 1 77.8746 81.7798 13.0667 
19 C 1 78.802 81.3484 10.3374 
236 C 1 78.2973 81.6156 15.501 
250 C 1 76.0415 82.0776 14.6748 
33 C 1 76.5253 81.9969 9.55689 
259 C 1 77.0574 82.0235 11.9769 
261 C 1 75.1177 82.0031 13.5621 
337 C 1 73.9063 66.6402 17.8768 
336 C 1 73.3443 66.8139 16.5579 
325 C 1 73.4921 67.0189 20.3067 
553 C 1 73.1326 67.1681 22.7167 
554 C 1 74.4849 66.8215 22.9302 
324 C 1 73.1065 67.1204 18.984 
314 C 1 72.6828 67.437 21.3484 
335 C 1 72.1034 67.5101 16.2198 
326 C 1 74.8218 66.6069 20.5496 
323 C 1 71.9755 67.9247 18.6631 
322 C 1 71.4428 68.1024 17.3363 
313 C 1 71.4828 68.1613 21.0914 
312 C 1 71.1885 68.5197 19.7314 
338 C 1 75.2475 66.2859 18.1466 
327 C 1 75.3521 66.7058 21.8356 
339 C 1 75.7724 66.4139 19.4857 
349 C 1 76.1431 66.2064 16.9942 
328 C 1 76.7426 66.8192 22.0844 
340 C 1 77.1559 66.6876 19.6564 
341 C 1 77.632 66.9258 21.0013 
350 C 1 77.4723 66.6763 17.2398 
351 C 1 77.9609 66.979 18.5316 
363 C 1 78.3176 67.0612 16.1537 
342 C 1 78.8942 67.4476 21.2599 
567 C 1 77.2239 67.0034 23.4028 
352 C 1 79.141 67.8008 18.7213 
577 C 1 79.3329 67.8955 22.5267 
353 C 1 79.5319 68.0285 20.1189 
364 C 1 79.4792 67.9304 16.3733 
365 C 1 79.855 68.3679 17.6414 
348 C 1 75.5754 66.2207 15.6876 
285 C 1 68.5927 73.8875 20.8818 
294 C 1 68.6498 73.8651 17.1982 
295 C 1 68.7392 73.3564 18.4891 
511 C 1 68.4855 74.3474 23.2849 
284 C 1 68.5889 74.3276 19.5439 
272 C 1 68.4375 74.7991 21.9685 
286 C 1 69.0221 72.5213 21.1396 
307 C 1 68.756 72.8453 16.0842 
525 C 1 69.0965 72.1225 22.5386 
296 C 1 68.9969 72.0035 18.7828 
308 C 1 69.1414 71.513 16.4033 
297 C 1 69.2274 71.6093 20.1158 
309 C 1 69.334 71.0906 17.7442 
300 C 1 70.7492 68.7748 22.1673 
526 C 1 69.6178 70.8598 22.8933 
298 C 1 69.798 70.391 20.4855 
299 C 1 70.0359 69.9752 21.8467 
310 C 1 70.0344 69.9241 18.0519 
311 C 1 70.3004 69.592 19.426 
321 C 1 70.4887 69.1076 17.0132 
320 C 1 70.181 69.4527 15.6362 
578 C 1 80.3358 68.8791 22.7175 
354 C 1 80.4458 69.1007 20.3137 
366 C 1 80.6133 69.5151 17.8926 
355 C 1 80.8518 69.5886 21.6177 
367 C 1 80.9414 69.8543 19.2057 
377 C 1 81.0298 70.2958 16.7958 
356 C 1 81.682 70.7793 21.8792 
378 C 1 81.4125 71.6139 17.0525 
368 C 1 81.4225 71.1403 19.4966 
369 C 1 81.8046 71.6537 20.7965 
370 C 1 82.1065 72.992 21.0781 
379 C 1 81.5787 72.0511 18.3988 
387 C 1 81.6029 72.5157 15.9561 
413 C 1 82.3405 73.4524 22.4243 
380 C 1 81.8509 73.4172 18.646 
388 C 1 81.7349 73.9311 16.1861 
197 C 1 82.0536 73.882 19.9712 
585 C 1 82.0028 71.1772 23.2574 
201 C 1 81.7859 74.3351 17.5944 
414 C 1 82.1098 74.8013 22.7197 
271 C 1 68.5435 76.1763 21.5998 
293 C 1 68.5289 75.2432 16.8332 
283 C 1 68.4348 75.7539 19.2456 
282 C 1 68.5324 76.1686 17.8894 
270 C 1 68.5976 76.6708 20.3038 
498 C 1 68.7004 77.1217 22.6732 
281 C 1 68.7641 77.5393 17.5508 
269 C 1 69.0123 77.9727 19.9853 
280 C 1 69.0916 77.9094 16.2274 
497 C 1 69.3036 78.3696 22.3988 
258 C 1 69.5333 78.8239 21.0579 
268 C 1 69.2127 78.3772 18.6475 
267 C 1 70.1419 79.4733 18.3287 
279 C 1 69.8966 79.0671 15.9526 
257 C 1 70.3899 79.9817 20.7745 
266 C 1 70.566 79.7559 17.025 
256 C 1 70.7115 80.212 19.4143 
483 C 1 70.7231 80.1016 23.2097 
244 C 1 71.137 80.4733 21.8436 
265 C 1 71.6498 80.6248 16.7718 
255 C 1 71.9187 80.9942 19.1981 
243 C 1 72.3282 81.1669 21.6092 
254 C 1 72.4514 81.1301 17.843 
213 C 1 79.9926 79.7782 20.0504 
224 C 1 80.0121 80.038 16.2891 
225 C 1 79.7105 80.2586 17.6458 
441 C 1 80.4601 79.5932 22.4381 
442 C 1 79.3879 80.5041 22.6664 
212 C 1 80.3264 79.4872 18.6949 
214 C 1 78.9485 80.6711 20.3039 
215 C 1 78.5727 80.9375 21.596 
226 C 1 78.6272 81.1578 17.926 
227 C 1 78.2079 81.2123 19.2494 
206 C 1 80.759 79.1737 21.1363 
223 C 1 80.775 78.8706 15.953 
211 C 1 81.0519 78.3727 18.345 
210 C 1 81.2074 77.972 16.9809 
205 C 1 81.5834 78.0152 20.8352 
198 C 1 82.0857 75.298 20.2281 
204 C 1 81.5651 77.5741 19.4626 
209 C 1 81.6594 76.6221 16.8001 
200 C 1 81.838 77.1016 21.8711 
199 C 1 82.0708 75.6701 21.6196 
202 C 1 81.8051 75.7234 17.8515 
203 C 1 81.9445 76.2367 19.1843 
427 C 1 81.5649 77.5459 23.2256 
242 C 1 72.7972 81.3791 20.2195 
470 C 1 73.1817 81.4385 22.6898 
253 C 1 73.7459 81.6784 17.6222 
241 C 1 74.1276 81.671 19.9862 
252 C 1 74.1978 81.7758 16.2733 
469 C 1 74.5424 81.6873 22.4581 
240 C 1 74.608 81.7477 18.6973 
237 C 1 77.9035 81.7413 16.8699 
230 C 1 75.0063 81.7365 21.1374 
216 C 1 77.3279 81.4159 21.9252 
228 C 1 76.8676 81.5959 19.5562 
238 C 1 76.4734 81.9422 17.1195 
239 C 1 76.0109 81.8237 18.4459 
251 C 1 75.5301 82.0214 16.0026 
229 C 1 76.3996 81.631 20.8545 
455 C 1 76.8396 81.527 23.2869 
539 C 1 71.1064 68.419 23.4686 
542 C 1 74.0759 66.942 25.3155 
532 C 1 73.5994 67.0612 27.7368 
533 C 1 74.1262 67.0108 29.0597 
543 C 1 74.5132 66.8075 26.6691 
520 C 1 73.3157 67.4587 30.1382 
541 C 1 72.7976 67.534 25.0212 
555 C 1 74.983 66.7002 24.2807 
540 C 1 72.2583 67.6836 23.7009 
531 C 1 72.3618 67.7166 27.4848 
530 C 1 71.9725 67.9486 26.1052 
519 C 1 72.1733 68.2371 29.8619 
518 C 1 71.7707 68.4071 28.565 
534 C 1 75.4956 66.7672 29.3237 
568 C 1 78.4781 67.5539 23.6734 
535 C 1 75.9884 66.9657 30.6477 
544 C 1 75.9052 66.7152 26.9224 
545 C 1 76.4359 66.8513 28.3114 
556 C 1 76.3478 66.7412 24.5314 
557 C 1 76.8424 66.8363 25.8901 
536 C 1 77.3948 67.256 30.9536 
546 C 1 77.8271 67.1536 28.5094 
547 C 1 78.2632 67.4289 29.8678 
558 C 1 78.1163 67.3332 26.1053 
559 C 1 78.6397 67.496 27.4353 
569 C 1 78.8528 67.8305 24.9857 
548 C 1 79.4723 68.1596 30.0756 
560 C 1 79.8056 68.3097 27.6179 
570 C 1 80.0378 68.6334 25.2296 
561 C 1 80.122 68.7371 28.9371 
491 C 1 68.2731 73.3919 29.7647 
490 C 1 68.2754 73.8161 28.391 
502 C 1 68.3682 73.3541 25.9545 
512 C 1 68.704 72.9638 23.5683 
503 C 1 68.3818 72.8875 27.3433 
480 C 1 68.1177 74.3459 30.7897 
501 C 1 68.3732 74.7231 25.6632 
492 C 1 68.6599 72.0583 30.0695 
513 C 1 68.8149 72.5055 24.899 
504 C 1 68.9481 71.5747 27.6164 
514 C 1 69.3909 71.2196 25.252 
508 C 1 71.3731 68.8233 30.8853 
529 C 1 70.9675 68.9657 25.8657 
505 C 1 69.228 71.2753 28.9968 
515 C 1 69.5241 70.7954 26.6087 
506 C 1 70.0252 70.0848 29.2808 
507 C 1 70.3995 69.8304 30.6348 
516 C 1 70.3183 69.6844 26.9499 
517 C 1 70.681 69.2831 28.2493 
527 C 1 69.8295 70.4512 24.2046 
528 C 1 70.4882 69.2417 24.5153 
571 C 1 80.3882 69.0038 26.5486 
579 C 1 80.6866 69.2504 24.0697 
562 C 1 81.1561 69.7605 29.2249 
563 C 1 81.4437 70.1497 30.5455 
572 C 1 81.2868 70.0529 26.8065 
586 C 1 82.4061 72.4855 23.4987 
580 C 1 81.5448 70.2987 24.3416 
573 C 1 81.6044 70.5025 28.1512 
581 C 1 81.7456 70.7926 25.6676 
564 C 1 82.1734 71.3947 30.8184 
574 C 1 82.195 71.7708 28.3833 
575 C 1 82.4408 72.2417 29.7352 
576 C 1 82.6949 73.6197 29.9729 
582 C 1 82.3028 72.0671 25.9299 
583 C 1 82.4715 72.5896 27.2369 
587 C 1 82.5077 72.9306 24.8434 
584 C 1 82.4972 73.9748 27.5587 
397 C 1 82.4958 74.5284 28.8849 
588 C 1 82.4393 74.4239 25.0859 
403 C 1 82.362 74.8828 26.4684 
500 C 1 68.4869 75.3039 24.3717 
489 C 1 68.1655 75.2205 28.1024 
479 C 1 68.1173 75.7669 30.4812 
478 C 1 68.1263 76.1632 29.1384 
488 C 1 68.3846 75.6671 26.7936 
499 C 1 68.6376 76.6806 24.0599 
477 C 1 68.6416 77.513 28.8278 
487 C 1 68.7837 77.0713 26.4109 
486 C 1 68.8029 77.5749 25.1036 
484 C 1 69.7282 79.1647 23.465 
476 C 1 68.8982 78.0207 27.5061 
464 C 1 69.1135 78.3235 29.8646 
485 C 1 69.4418 78.7927 24.8807 
462 C 1 70.2979 79.7694 28.3855 
463 C 1 70.0034 79.4271 29.7195 
474 C 1 69.9851 79.514 25.9486 
475 C 1 69.6718 79.2079 27.3081 
452 C 1 70.6708 80.0143 30.7953 
473 C 1 71.1068 80.352 25.6859 
461 C 1 71.4839 80.5115 28.1057 
472 C 1 71.4938 80.612 24.3333 
460 C 1 71.8491 80.8595 26.7803 
451 C 1 71.9349 80.6529 30.5386 
450 C 1 72.3137 80.8468 29.1674 
471 C 1 72.7734 81.2029 24.0572 
420 C 1 80.2601 79.9914 27.4927 
421 C 1 79.9463 80.3904 28.855 
430 C 1 79.7946 80.2464 25.1098 
408 C 1 80.5839 79.7017 29.9367 
431 C 1 79.4771 80.4666 26.4525 
423 C 1 78.2388 81.1716 30.4405 
443 C 1 78.995 80.698 24.0398 
422 C 1 78.7134 81.0683 29.0931 
432 C 1 78.2119 81.0962 26.7151 
429 C 1 80.7675 79.2363 24.8396 
428 C 1 81.019 78.826 23.4845 
419 C 1 81.1408 78.9111 27.2623 
444 C 1 77.7192 81.2004 24.343 
409 C 1 80.2497 80.1013 31.2494 
418 C 1 81.3439 78.5018 25.9196 
407 C 1 81.3515 78.499 29.6442 
406 C 1 81.4764 78.0721 28.3478 
415 C 1 82.1238 75.3123 24.0322 
398 C 1 82.3329 75.9215 29.1682 
399 C 1 82.403 76.4252 30.4593 
404 C 1 82.1444 76.2488 26.7587 
405 C 1 81.9992 76.7785 28.1307 
416 C 1 81.8868 76.6585 24.3144 
417 C 1 81.8031 77.1338 25.6676 
400 C 1 81.8614 77.7617 30.695 
457 C 1 74.9357 81.6692 24.8497 
459 C 1 73.1447 81.3937 26.4358 
458 C 1 73.6108 81.4858 25.1268 
449 C 1 73.6549 81.3714 28.9085 
448 C 1 74.0678 81.4395 27.5537 
436 C 1 74.5513 81.5341 29.9574 
456 C 1 75.4284 81.6306 23.5178 
447 C 1 75.4712 81.6464 27.262 
434 C 1 76.3912 81.5515 28.3761 
435 C 1 75.8901 81.6556 29.6756 
424 C 1 76.8668 81.5108 30.7523 
433 C 1 77.7987 81.3076 28.0551 
446 C 1 75.8812 81.6928 25.9249 
445 C 1 77.2727 81.3975 25.6931 
738 C 1 74.2715 67.3442 36.5579 
749 C 1 73.3364 67.5811 33.9661 
728 C 1 73.7825 67.4058 38.9629 
521 C 1 73.7206 67.4002 31.5161 
750 C 1 74.662 67.2222 34.1468 
739 C 1 74.7097 67.1949 37.8992 
737 C 1 72.9999 67.9002 36.3297 
510 C 1 72.8148 67.6964 32.6223 
727 C 1 72.5301 68.1429 38.6838 
736 C 1 72.5476 68.09 34.994 
726 C 1 72.1632 68.3082 37.3409 
509 C 1 71.6994 68.4757 32.2678 
735 C 1 71.337 68.7473 34.6458 
522 C 1 75.1023 67.222 31.7532 
751 C 1 75.194 67.2064 35.4602 
523 C 1 75.6073 67.2718 33.0501 
740 C 1 76.1186 67.0191 38.1455 
752 C 1 76.5791 67.2735 35.7553 
753 C 1 77.0508 67.2182 37.0873 
524 C 1 77.0008 67.2783 33.3508 
763 C 1 77.4859 67.4679 34.6415 
537 C 1 77.8748 67.4102 32.2432 
754 C 1 78.3535 67.7129 37.3654 
764 C 1 78.7991 67.8248 34.915 
755 C 1 78.7784 67.9438 38.6836 
538 C 1 79.1431 67.9891 32.509 
765 C 1 79.2197 68.0614 36.2811 
773 C 1 79.6425 68.1738 33.8184 
549 C 1 79.8631 68.5063 31.4107 
756 C 1 79.9286 68.7231 38.9211 
698 C 1 68.1729 73.4422 37.2036 
481 C 1 68.2274 73.9008 32.1878 
699 C 1 68.1479 72.9282 38.4953 
708 C 1 68.4347 72.9938 34.7904 
709 C 1 68.6342 72.6165 36.1595 
707 C 1 68.1259 74.383 34.5023 
482 C 1 68.6227 72.5582 32.4441 
468 C 1 68.0651 74.8484 33.192 
697 C 1 67.9542 74.8102 36.9067 
721 C 1 68.7849 72.071 33.7607 
700 C 1 68.8448 71.7114 38.878 
493 C 1 68.9265 71.6212 31.4038 
710 C 1 69.2045 71.3175 36.4656 
496 C 1 70.9272 69.0406 33.3233 
711 C 1 69.4176 70.939 37.819 
722 C 1 69.4689 70.8462 34.0656 
494 C 1 69.7758 70.4828 31.697 
495 C 1 70.0591 70.1546 33.0737 
712 C 1 70.3296 69.9571 38.13 
723 C 1 69.6514 70.406 35.4049 
724 C 1 70.547 69.3578 35.7115 
725 C 1 70.991 69.1373 37.0383 
766 C 1 80.3493 68.8679 36.5448 
767 C 1 80.6983 69.2132 37.8342 
774 C 1 80.7135 69.0422 34.0619 
775 C 1 81.0426 69.4831 35.4458 
550 C 1 80.823 69.4938 31.6441 
551 C 1 81.202 69.8816 32.9808 
768 C 1 81.6256 70.2968 38.0623 
552 C 1 82.0009 71.042 33.193 
565 C 1 82.3747 71.8655 32.1418 
566 C 1 82.6164 73.2722 32.3828 
609 C 1 82.7075 73.765 33.7035 
776 C 1 81.7488 70.7015 35.5917 
777 C 1 82.0573 71.1206 36.9677 
778 C 1 82.6252 72.4302 37.2034 
779 C 1 82.6888 72.9695 38.5417 
781 C 1 82.2067 71.5249 34.5244 
782 C 1 82.6524 72.87 34.7957 
783 C 1 82.8565 73.351 36.1165 
780 C 1 82.917 74.344 38.7998 
784 C 1 82.9386 74.7717 36.3797 
393 C 1 82.7786 74.1372 31.3014 
696 C 1 68.0599 75.2954 35.5368 
684 C 1 68.0445 75.7067 37.9771 
467 C 1 68.087 76.2677 32.8713 
695 C 1 68.1635 76.7134 35.3064 
466 C 1 68.2098 76.6919 31.5652 
683 C 1 68.3627 77.0661 37.7122 
694 C 1 68.3207 77.1433 33.934 
682 C 1 68.4615 77.5879 36.4065 
672 C 1 68.659 77.9947 38.8228 
693 C 1 68.9669 78.4077 33.7384 
454 C 1 69.2456 78.756 32.4014 
681 C 1 69.2028 78.7907 36.2036 
453 C 1 70.3035 79.7419 32.1403 
670 C 1 69.8325 79.5155 37.2748 
671 C 1 69.4166 79.1433 38.6091 
679 C 1 70.6965 80.0067 34.6051 
680 C 1 69.5634 79.0834 34.8705 
669 C 1 70.9396 80.39 37.0306 
440 C 1 71.0544 80.2514 33.1977 
668 C 1 71.402 80.5705 35.6668 
656 C 1 71.8587 80.7376 38.0982 
439 C 1 72.3176 80.9183 32.8928 
438 C 1 72.7737 81.1078 31.5597 
667 C 1 72.6895 81.1095 35.3418 
666 C 1 73.1579 81.2014 34.0038 
465 C 1 68.7633 78.0243 31.2866 
626 C 1 79.9885 80.3169 36.408 
616 C 1 80.3081 79.9865 38.8272 
637 C 1 80.6316 79.7195 33.6831 
627 C 1 79.5549 80.5409 37.7372 
638 C 1 79.5558 80.5954 33.9545 
639 C 1 79.1848 80.8087 35.3032 
410 C 1 79.0917 80.8859 31.5426 
411 C 1 78.68 81.0417 32.8675 
625 C 1 81.068 79.4387 36.1339 
402 C 1 80.933 79.3934 32.2539 
628 C 1 78.1653 80.8464 38.0135 
640 C 1 77.802 81.1551 35.5359 
641 C 1 77.3262 81.2076 36.9497 
615 C 1 81.2535 78.9761 38.548 
624 C 1 81.32 79.1193 34.8013 
610 C 1 82.675 75.2142 34.0015 
599 C 1 82.8544 75.2436 37.7893 
614 C 1 81.6354 78.7662 37.1886 
401 C 1 81.664 78.2313 32.0057 
623 C 1 81.9331 77.8742 34.4893 
394 C 1 82.5339 75.509 31.5464 
395 C 1 82.5723 76.072 32.8404 
396 C 1 82.1103 77.4435 33.1549 
600 C 1 82.627 76.6633 37.9666 
611 C 1 82.6839 75.706 35.3478 
612 C 1 82.339 77.0519 35.5493 
613 C 1 82.3684 77.5658 36.8765 
437 C 1 74.1361 81.4586 31.283 
655 C 1 73.1315 81.2854 37.6902 
654 C 1 73.6454 81.4751 36.3906 
644 C 1 74.0438 81.4856 38.721 
665 C 1 74.4758 81.5058 33.7013 
653 C 1 75.0287 81.599 36.126 
426 C 1 75.0324 81.4728 32.3665 
412 C 1 77.3159 81.4607 33.1757 
651 C 1 76.854 81.4288 34.5073 
652 C 1 75.4261 81.561 34.7818 
425 C 1 76.378 81.6493 32.0837 
642 C 1 75.9419 81.4137 37.1645 
643 C 1 75.481 81.48 38.5119 
706 C 1 73.0858 68.2916 43.7813 
716 C 1 73.3799 67.7925 41.4256 
717 C 1 73.9525 67.7994 42.7163 
729 C 1 74.2375 67.422 40.3417 
945 C 1 73.5179 68.076 45.1319 
932 C 1 72.5978 68.3663 46.1887 
946 C 1 74.8521 67.6911 45.3357 
715 C 1 72.2103 68.5451 41.1501 
718 C 1 75.2758 67.4064 42.9908 
947 C 1 75.3016 67.6344 46.7052 
719 C 1 75.7787 67.4639 44.2808 
720 C 1 77.1966 67.4711 44.5798 
730 C 1 75.6279 67.0802 40.5466 
731 C 1 76.1444 67.1086 41.9012 
732 C 1 77.5885 67.4269 42.1375 
741 C 1 76.5941 67.1551 39.4877 
959 C 1 77.6443 67.6615 45.9439 
733 C 1 78.1177 67.6448 43.4744 
742 C 1 77.939 67.5595 39.7546 
743 C 1 78.4004 67.7943 41.0723 
960 C 1 78.9825 68.2289 46.1919 
734 C 1 79.35 68.2658 43.74 
744 C 1 79.5883 68.5602 41.267 
969 C 1 79.8104 68.5999 45.0764 
677 C 1 67.9637 73.9818 43.4178 
903 C 1 67.9507 74.4141 45.9176 
686 C 1 67.9608 73.8164 39.6062 
687 C 1 68.0511 73.4395 40.9745 
904 C 1 68.2043 73.0945 46.1587 
676 C 1 67.9604 74.3125 42.0663 
678 C 1 68.4739 72.719 43.7952 
688 C 1 68.64 72.1497 41.2685 
917 C 1 68.5334 72.1969 45.0755 
664 C 1 67.7885 74.8695 44.553 
714 C 1 71.8224 68.7908 39.7266 
705 C 1 71.8954 68.9846 43.5841 
931 C 1 71.3076 68.9882 45.9453 
704 C 1 71.4977 69.188 42.2513 
689 C 1 68.8833 71.8991 42.6757 
701 C 1 69.1054 71.3379 40.2061 
919 C 1 69.5221 70.5134 46.6902 
690 C 1 69.7514 70.7171 42.9058 
691 C 1 69.9973 70.4177 44.288 
692 C 1 71.0005 69.4381 44.5976 
702 C 1 70.0415 70.3402 40.5001 
703 C 1 70.4624 70.0738 41.8649 
713 C 1 70.7487 69.6507 39.4258 
918 C 1 69.2995 71.0172 45.3592 
745 C 1 80.0578 68.8039 42.599 
757 C 1 80.3067 69.0907 40.2374 
970 C 1 80.798 69.6093 45.3442 
971 C 1 81.1166 70.0473 46.6744 
746 C 1 81.0649 69.7806 42.9135 
758 C 1 81.2997 70.0702 40.4603 
747 C 1 81.3726 70.2024 44.2094 
759 C 1 81.6616 70.4365 41.7983 
748 C 1 82.2681 71.3088 44.4758 
760 C 1 82.5132 71.6567 42.1104 
761 C 1 82.5845 72.1674 43.4484 
762 C 1 83.0528 73.4805 43.6989 
769 C 1 81.8771 70.8041 39.3593 
770 C 1 82.5241 72.0176 39.6324 
771 C 1 82.8331 72.5157 40.9851 
772 C 1 83.0771 73.9153 41.2615 
805 C 1 83.1983 73.9853 45.0108 
977 C 1 82.5283 71.8033 45.8159 
978 C 1 83.0658 73.1045 46.0546 
589 C 1 83.0934 74.4767 42.5974 
593 C 1 83.0526 74.816 40.1871 
685 C 1 67.9947 75.2734 39.3693 
675 C 1 68.001 75.7223 41.8191 
663 C 1 67.9681 76.2814 44.2904 
662 C 1 68.0575 76.6725 42.9271 
674 C 1 68.1796 76.146 40.4502 
890 C 1 68.3389 77.1724 45.3356 