ITEM: TIMESTEP
1334298
ITEM: NUMBER OF ATOMS
5084
ITEM: BOX BOUNDS pp pp pp
0.0000000000000000e+00 1.5000000000000000e+02
0.0000000000000000e+00 1.5000000000000000e+02
0.0000000000000000e+00 2.8837799999999999e+02
ITEM: ATOMS id element type x y z 
265 C 1 71.414 73.998 0.032 
266 C 1 71.148 74.252 1.413 
267 C 1 71.92 73.601 2.422 
269 C 1 70.671 74.812 4.174 
271 C 1 71.084 74.318 6.564 
321 C 1 73.494 72.859 0.669 
322 C 1 73.144 72.971 2.05 
323 C 1 74.123 72.722 3.059 
324 C 1 71.625 73.82 3.803 
325 C 1 72.471 73.267 4.812 
326 C 1 72.151 73.45 6.192 
327 C 1 73.057 73.003 7.202 
328 C 1 70.841 74.594 7.945 
329 C 1 71.554 73.878 8.954 
377 C 1 74.855 72.66 0.297 
381 C 1 73.761 72.791 4.44 
382 C 1 74.763 72.662 5.449 
383 C 1 74.396 72.687 6.83 
385 C 1 72.718 73.146 8.582 
378 C 1 75.862 72.742 1.306 
379 C 1 75.498 72.69 2.687 
380 C 1 76.488 72.892 3.696 
384 C 1 75.407 72.681 7.839 
433 C 1 79.267 74.907 0.191 
434 C 1 77.174 73.156 0.935 
435 C 1 78.045 73.669 1.944 
436 C 1 77.74 73.463 3.325 
437 C 1 78.542 74.077 4.334 
438 C 1 76.133 72.797 5.077 
439 C 1 77.091 73.118 6.086 
440 C 1 76.75 72.98 7.467 
441 C 1 77.662 73.415 8.476 
490 C 1 79.045 74.614 1.572 
494 C 1 78.264 73.836 5.714 
495 C 1 78.986 74.543 6.724 
496 C 1 78.739 74.27 8.104 
3661 H 2 72.6166 76.9363 6.70424 
105 C 1 70.029 79.965 0.51 
109 C 1 70.55 80.936 4.652 
154 C 1 69.678 78.635 0.138 
155 C 1 69.646 77.625 1.147 
156 C 1 70.18 80.301 1.891 
157 C 1 69.822 79.356 2.9 
158 C 1 69.931 79.707 4.281 
159 C 1 69.691 78.726 5.29 
160 C 1 70.767 81.233 6.033 
161 C 1 70.221 80.383 7.042 
162 C 1 70.401 80.704 8.423 
209 C 1 69.91 76.275 0.775 
210 C 1 70.321 75.352 1.784 
211 C 1 69.635 77.993 2.528 
212 C 1 69.725 76.986 3.537 
213 C 1 69.67 77.35 4.918 
214 C 1 69.881 76.362 5.927 
215 C 1 69.756 79.088 6.67 
216 C 1 69.636 78.085 7.679 
268 C 1 70.151 75.678 3.165 
270 C 1 70.463 75.115 5.555 
272 C 1 69.783 76.717 7.308 
273 C 1 70.112 75.761 8.317 
3660 O 3 72.7076 77.3173 7.5776 
3631 H 2 72.8469 78.1699 2.30931 
3643 H 2 73.2196 78.6069 5.15941 
3667 H 2 73.3357 78.9329 7.77961 
3642 O 3 73.5067 79.5102 5.02622 
3644 H 2 73.3368 79.6819 4.1 
3668 H 2 73.4113 80.1993 6.9534 
3666 O 3 73.6662 79.8311 7.79938 
5078 H 2 73.3947 80.1743 1.23026 
5076 O 3 73.5059 79.8385 2.11969 
5077 H 2 74.4455 79.6732 2.19808 
3632 H 2 73.1651 77.094 1.29285 
3647 H 2 72.8624 76.8546 4.05061 
3645 O 3 73.1268 76.793 4.96848 
3630 O 3 72.8975 77.2199 2.20323 
3646 H 2 74.0232 76.4586 4.93804 
3623 H 2 74.5146 76.3362 2.42832 
3664 H 2 74.2158 76.4632 7.84742 
3662 H 2 72.3187 76.6686 8.16419 
3641 H 2 75.2064 79.7628 5.59519 
3655 H 2 75.3226 79.9172 8.10561 
3621 O 3 75.3083 75.8023 2.39549 
3649 H 2 75.5302 75.2449 6.03685 
3622 H 2 75.2663 75.2611 3.18388 
3640 H 2 76.3981 80.0823 6.4724 
3654 O 3 76.2287 80.0734 8.37178 
3639 O 3 76.1621 79.7153 5.62044 
3627 O 3 76.1038 79.7382 2.64589 
3628 H 2 76.224 79.9019 3.5813 
3637 H 2 77.0997 78.3401 5.46266 
3629 H 2 76.6004 78.9376 2.47658 
3663 O 3 75.027 76.0171 8.09056 
3648 O 3 75.4612 75.5737 5.14054 
3650 H 2 76.1341 76.2518 5.08113 
3652 H 2 76.4085 76.8759 8.12966 
3626 H 2 76.5549 76.7867 2.41113 
3624 O 3 77.2924 77.3593 2.20047 
3638 H 2 77.4375 77.1695 6.36131 
3625 H 2 77.8391 77.3454 2.98608 
3636 O 3 77.3378 77.4132 5.44103 
3651 O 3 77.1782 77.4351 8.23479 
3653 H 2 76.8204 78.3095 8.38853 
1 C 1 80.209 78.477 0.457 
2 C 1 80.015 79.469 1.466 
3 C 1 80.217 78.386 5.608 
4 C 1 79.455 80.726 1.094 
6 C 1 80.107 79.113 2.847 
7 C 1 79.795 80.073 3.856 
8 C 1 79.929 79.731 5.236 
9 C 1 79.503 80.647 6.246 
10 C 1 80.234 78.018 6.989 
11 C 1 80.127 79.023 7.998 
22 C 1 79.678 80.323 7.626 
23 C 1 79.143 81.181 8.635 
489 C 1 80.165 77.102 0.828 
491 C 1 79.605 75.455 2.581 
492 C 1 79.42 75.137 3.962 
493 C 1 79.874 76.039 4.971 
544 C 1 80.093 76.741 2.209 
545 C 1 80.23 77.742 3.218 
546 C 1 80.202 77.375 4.599 
547 C 1 79.729 75.701 6.352 
548 C 1 80.071 76.652 7.361 
549 C 1 79.968 76.299 8.742 
3635 H 2 75.608 75.6375 0.593812 
5063 H 2 76.2871 80.0145 0.646149 
38 C 1 74.554 83.245 3.378 
65 C 1 73.826 83.142 0.616 
66 C 1 72.863 82.837 1.625 
67 C 1 73.206 82.969 3.006 
68 C 1 72.287 82.55 4.015 
69 C 1 74.922 83.259 4.759 
70 C 1 73.916 83.16 5.768 
71 C 1 74.28 83.218 7.148 
72 C 1 73.294 82.999 8.157 
106 C 1 71.677 82.14 1.253 
107 C 1 70.943 81.446 2.262 
108 C 1 71.194 81.714 3.643 
110 C 1 72.612 82.723 5.396 
111 C 1 71.75 82.196 6.405 
112 C 1 72.052 82.406 7.786 
113 C 1 71.26 81.778 8.795 
5 C 1 78.848 81.533 2.103 
15 C 1 77.48 82.608 0.351 
16 C 1 77.796 82.42 1.731 
17 C 1 76.898 82.882 2.74 
18 C 1 79.087 81.253 3.484 
19 C 1 78.386 81.981 4.493 
20 C 1 78.657 81.732 5.874 
21 C 1 77.873 82.37 6.883 
36 C 1 75.198 83.253 0.988 
37 C 1 75.564 83.222 2.369 
39 C 1 77.235 82.734 4.121 
40 C 1 76.287 83.084 5.13 
41 C 1 76.639 82.978 6.511 
42 C 1 75.656 83.21 7.52 
43 C 1 78.172 82.155 8.264 
73 C 1 76.018 83.147 8.901 
330 C 1 71.279 74.123 10.335 
331 C 1 72.073 73.499 11.344 
333 C 1 70.783 74.666 13.097 
334 C 1 70.564 74.962 14.477 
335 C 1 71.213 74.187 15.486 
386 C 1 73.672 72.812 9.591 
387 C 1 73.318 72.912 10.972 
388 C 1 74.305 72.697 11.981 
389 C 1 71.771 73.708 12.725 
390 C 1 72.635 73.185 13.734 
391 C 1 72.309 73.356 15.115 
392 C 1 73.231 72.941 16.124 
393 C 1 70.96 74.454 16.867 
394 C 1 71.697 73.763 17.876 
446 C 1 73.941 72.754 13.362 
447 C 1 74.947 72.66 14.371 
448 C 1 74.58 72.672 15.752 
450 C 1 72.886 73.071 17.505 
442 C 1 75.039 72.661 9.22 
443 C 1 76.043 72.777 10.229 
444 C 1 75.681 72.712 11.609 
445 C 1 76.663 72.949 12.619 
449 C 1 75.59 72.7 16.761 
498 C 1 77.34 73.237 9.857 
499 C 1 78.192 73.779 10.866 
500 C 1 77.894 73.563 12.247 
501 C 1 78.675 74.205 13.256 
502 C 1 76.311 72.842 13.999 
503 C 1 77.257 73.196 15.008 
504 C 1 76.921 73.046 16.389 
505 C 1 77.818 73.512 17.398 
551 C 1 79.159 74.759 10.494 
555 C 1 78.405 73.954 14.637 
556 C 1 79.102 74.686 15.646 
557 C 1 78.865 74.404 17.027 
163 C 1 69.963 79.794 9.432 
167 C 1 70.449 80.782 13.575 
217 C 1 69.658 78.452 9.06 
218 C 1 69.66 77.442 10.069 
219 C 1 70.102 80.134 10.813 
220 C 1 69.777 79.177 11.822 
221 C 1 69.874 79.532 13.203 
222 C 1 69.667 78.543 14.212 
223 C 1 70.656 81.087 14.955 
224 C 1 70.14 80.218 15.964 
225 C 1 70.308 80.545 17.345 
274 C 1 69.971 76.101 9.698 
275 C 1 70.414 75.193 10.707 
276 C 1 69.637 77.809 11.45 
277 C 1 69.762 76.806 12.459 
278 C 1 69.694 77.168 13.84 
279 C 1 69.94 76.188 14.849 
280 C 1 69.72 78.907 15.593 
281 C 1 69.635 77.901 16.602 
282 C 1 69.644 78.268 17.983 
332 C 1 70.233 75.513 12.087 
336 C 1 69.829 76.538 16.23 
337 C 1 70.191 75.595 17.239 
3695 H 2 72.4188 77.051 14.5593 
3705 O 3 72.9214 77.0637 16.622 
3694 H 2 72.9269 78.121 13.6165 
3706 H 2 73.1497 77.9798 16.7799 
3659 H 2 72.8514 78.6557 10.458 
3690 O 3 73.629 79.6242 16.2966 
3691 H 2 73.4529 79.6547 15.3562 
3658 H 2 73.5809 79.8099 9.80414 
3657 O 3 73.4042 79.4115 10.6564 
3676 H 2 73.3515 79.7278 12.5393 
3675 O 3 73.4635 79.7407 13.4898 
3692 H 2 74.5825 79.6756 16.364 
3677 H 2 74.4097 79.8052 13.6191 
3678 O 3 72.8704 76.7837 10.6011 
3679 H 2 72.5348 76.6142 11.4814 
3693 O 3 72.692 77.1938 13.6531 
3680 H 2 73.7706 76.4588 10.6209 
3697 H 2 74.0689 76.0869 13.3178 
3709 H 2 74.3149 76.2574 16.39 
3707 H 2 72.6761 76.7256 17.4833 
3698 H 2 74.8372 75.2842 14.346 
3696 O 3 74.9146 75.6659 13.4717 
3710 H 2 75.3345 75.367 17.0678 
3683 H 2 75.2619 75.2771 11.6444 
3708 O 3 75.1173 75.7628 16.2238 
3656 H 2 76.2359 79.8988 9.31289 
3674 H 2 75.1338 79.6622 11.1486 
3665 H 2 75.0223 76.0153 9.04775 
3672 O 3 76.0869 79.7504 11.157 
3703 H 2 76.4425 80.01 15.6319 
3702 O 3 76.2854 79.7068 16.5262 
3687 O 3 76.2154 79.8529 13.7937 
3688 H 2 76.6604 80.113 12.9871 
3673 H 2 76.4115 78.8521 11.0945 
3689 H 2 76.5359 78.9684 13.9701 
3704 H 2 76.6863 78.8382 16.559 
3681 O 3 75.2492 75.7262 10.7992 
3682 H 2 76.0029 76.3155 10.8292 
3685 H 2 76.2489 76.714 13.9619 
3671 H 2 77.3108 77.0714 12.2626 
3700 H 2 76.2804 76.8497 16.8004 
3670 H 2 78.1607 77.3752 11.0472 
3669 O 3 77.2662 77.4418 11.3811 
3684 O 3 77.0738 77.1876 14.0689 
3699 O 3 77.1513 77.2436 16.7494 
3686 H 2 77.2587 77.1386 15.0068 
12 C 1 80.188 78.66 9.379 
13 C 1 79.959 79.644 10.388 
14 C 1 80.199 78.569 14.53 
24 C 1 79.356 80.881 10.016 
26 C 1 80.064 79.292 11.769 
27 C 1 79.718 80.241 12.778 
28 C 1 79.865 79.903 14.159 
29 C 1 79.407 80.804 15.168 
30 C 1 80.229 78.202 15.911 
31 C 1 80.087 79.202 16.92 
51 C 1 79.593 80.487 16.549 
497 C 1 79.37 75.059 9.113 
550 C 1 80.191 77.284 9.751 
552 C 1 79.689 75.618 11.503 
553 C 1 79.515 75.294 12.884 
554 C 1 79.938 76.212 13.893 
597 C 1 80.132 76.921 11.132 
598 C 1 80.234 77.926 12.141 
599 C 1 80.219 77.559 13.521 
600 C 1 79.805 75.869 15.274 
601 C 1 80.113 76.831 16.283 
602 C 1 80.022 76.475 17.664 
3701 H 2 77.4069 77.3799 17.6617 
76 C 1 74.371 83.229 12.3 
114 C 1 73.647 83.1 9.538 
115 C 1 72.695 82.763 10.547 
116 C 1 73.034 82.906 11.928 
117 C 1 72.129 82.456 12.937 
118 C 1 74.738 83.255 13.681 
119 C 1 73.737 83.122 14.69 
120 C 1 74.098 83.193 16.071 
121 C 1 73.12 82.939 17.08 
164 C 1 71.534 82.024 10.176 
165 C 1 70.824 81.305 11.185 
166 C 1 71.066 81.582 12.565 
168 C 1 72.448 82.64 14.318 
169 C 1 71.605 82.083 15.327 
170 C 1 71.899 82.304 16.708 
171 C 1 71.13 81.649 17.717 
74 C 1 75.014 83.259 9.91 
81 C 1 78.025 82.265 17.186 
47 C 1 78.97 81.395 12.406 
48 C 1 78.244 82.099 13.415 
78 C 1 76.108 83.128 14.052 
49 C 1 78.524 81.859 14.796 
45 C 1 77.64 82.517 10.654 
80 C 1 75.473 83.232 16.442 
50 C 1 77.718 82.469 15.805 
79 C 1 76.464 83.034 15.433 
75 C 1 75.381 83.24 11.291 
122 C 1 75.837 83.182 17.823 
46 C 1 76.726 82.947 11.663 
25 C 1 78.722 81.667 11.025 
77 C 1 77.067 82.811 13.043 
44 C 1 77.317 82.693 9.273 
52 C 1 79.029 81.325 17.558 
395 C 1 71.414 73.998 19.257 
396 C 1 72.23 73.402 20.266 
398 C 1 70.9 74.524 22.019 
399 C 1 70.671 74.812 23.4 
400 C 1 71.346 74.06 24.409 
451 C 1 73.851 72.772 18.514 
452 C 1 73.494 72.859 19.894 
453 C 1 74.488 72.679 20.903 
454 C 1 71.92 73.601 21.647 
455 C 1 72.802 73.108 22.656 
456 C 1 72.471 73.267 24.037 
457 C 1 73.406 72.885 25.046 
458 C 1 71.084 74.318 25.789 
459 C 1 71.845 73.654 26.798 
510 C 1 74.123 72.722 22.284 
512 C 1 74.763 72.662 24.674 
514 C 1 73.057 73.003 26.427 
506 C 1 75.223 72.668 18.142 
507 C 1 76.222 72.818 19.151 
508 C 1 75.862 72.742 20.532 
509 C 1 76.836 73.012 21.541 
511 C 1 75.131 72.663 23.293 
513 C 1 75.772 72.726 25.683 
559 C 1 77.502 73.323 18.779 
560 C 1 78.335 73.895 19.788 
561 C 1 78.045 73.669 21.169 
562 C 1 78.803 74.337 22.178 
563 C 1 76.488 72.892 22.922 
564 C 1 77.421 73.279 23.931 
565 C 1 77.091 73.118 25.311 
566 C 1 77.97 73.615 26.321 
604 C 1 79.267 74.907 19.416 
608 C 1 78.542 74.077 23.559 
609 C 1 79.213 74.832 24.568 
610 C 1 78.986 74.543 25.949 
226 C 1 69.902 79.62 18.354 
228 C 1 70.711 81.16 20.107 
230 C 1 70.354 80.625 22.497 
283 C 1 69.681 77.259 18.992 
284 C 1 70.029 79.965 19.735 
285 C 1 69.738 78.998 20.744 
286 C 1 69.822 79.356 22.125 
287 C 1 69.65 78.36 23.134 
288 C 1 70.55 80.936 23.878 
289 C 1 70.065 80.05 24.887 
290 C 1 70.221 80.383 26.267 
338 C 1 70.039 75.93 18.62 
339 C 1 70.513 75.038 19.629 
340 C 1 69.646 77.625 20.372 
341 C 1 69.805 76.627 21.381 
342 C 1 69.725 76.986 22.762 
343 C 1 70.004 76.015 23.771 
344 C 1 69.691 78.726 24.515 
345 C 1 69.641 77.717 25.524 
346 C 1 69.636 78.085 26.905 
397 C 1 70.321 75.352 21.01 
401 C 1 69.881 76.362 25.152 
402 C 1 70.276 75.432 26.161 
3741 O 3 73.2127 76.7847 25.485 
3743 H 2 72.9607 76.3708 26.3105 
3717 O 3 73.1279 76.8441 19.3384 
3718 H 2 72.3887 76.5336 19.8613 
3724 H 2 72.726 76.7106 23.4626 
3723 O 3 73.0004 76.885 22.5623 
3719 H 2 73.0231 77.7953 19.3157 
3725 H 2 72.9306 77.8352 22.4699 
3740 H 2 73.0108 78.4068 25.184 
3714 O 3 73.0206 79.6227 19.0936 
3721 H 2 73.1746 79.6737 21.1008 
3720 O 3 73.425 79.5288 22.0133 
3738 O 3 72.9693 79.3626 25.153 
3739 H 2 72.7382 79.5634 24.2461 
3716 H 2 73.9606 79.8015 19.1193 
3722 H 2 74.3585 79.7385 22.0422 
3742 H 2 74.1129 76.4953 25.3364 
3713 H 2 74.6397 76.0778 18.9641 
3731 H 2 74.5655 76.0094 22.0902 
3715 H 2 72.7645 79.814 18.1914 
3752 H 2 74.5172 80.0882 25.3712 
3755 H 2 72.6721 79.1012 26.7857 
3711 O 3 75.568 75.8489 18.9183 
3712 H 2 75.7635 75.4672 19.774 
3730 H 2 75.5209 75.6109 23.1948 
3750 O 3 75.4143 80.4078 25.2749 
3732 O 3 75.6318 80.1495 19.279 
3735 O 3 75.9861 80.0831 22.231 
3751 H 2 75.3911 80.9552 24.49 
3737 H 2 76.0056 80.5823 21.4146 
3733 H 2 76.1639 79.3712 19.4446 
3736 H 2 76.4887 79.2912 22.0402 
3749 H 2 75.7583 75.3973 25.5932 
3729 O 3 75.4495 75.6752 22.2425 
3747 O 3 75.5452 75.9724 24.8583 
3748 H 2 76.1604 76.7014 24.9379 
3728 H 2 76.6159 77.0747 19.3056 
3745 H 2 76.9121 76.7887 22.1251 
3746 H 2 77.3787 77.8233 23.127 
3727 H 2 77.3574 77.8811 20.3505 
3744 O 3 77.2734 77.6729 22.1875 
3726 O 3 77.031 77.9247 19.4517 
3759 O 3 77.0704 78.1498 25.0806 
3760 H 2 77.5532 78.2601 25.8998 
3761 H 2 76.3818 78.8137 25.1167 
32 C 1 80.16 78.842 18.301 
33 C 1 79.898 79.818 19.31 
34 C 1 80.232 78.11 21.063 
35 C 1 80.175 78.751 23.453 
53 C 1 79.252 81.033 18.938 
55 C 1 80.015 79.469 20.691 
56 C 1 79.636 80.405 21.7 
57 C 1 79.795 80.073 23.081 
58 C 1 79.305 80.957 24.09 
59 C 1 80.217 78.386 24.833 
60 C 1 80.04 79.38 25.843 
89 C 1 79.503 80.647 25.471 
558 C 1 79.468 75.215 18.036 
603 C 1 80.211 77.467 18.673 
605 C 1 79.768 75.785 20.425 
606 C 1 79.605 75.455 21.806 
607 C 1 79.996 76.386 22.815 
611 C 1 79.561 75.374 26.958 
641 C 1 80.165 77.102 20.054 
642 C 1 80.23 77.742 22.444 
643 C 1 79.874 76.039 24.196 
644 C 1 80.149 77.011 25.205 
645 C 1 80.071 76.652 26.586 
3734 H 2 75.7902 80.357 18.3581 
123 C 1 74.83 83.258 18.832 
125 C 1 74.189 83.206 21.222 
172 C 1 73.47 83.053 18.46 
173 C 1 72.53 82.682 19.47 
174 C 1 72.863 82.837 20.85 
175 C 1 71.975 82.356 21.859 
176 C 1 74.554 83.245 22.603 
177 C 1 73.558 83.077 23.612 
178 C 1 73.916 83.16 24.993 
179 C 1 72.948 82.873 26.002 
227 C 1 71.395 81.904 19.098 
229 C 1 70.943 81.446 21.488 
231 C 1 72.287 82.55 23.24 
232 C 1 71.464 81.965 24.249 
233 C 1 71.75 82.196 25.63 
234 C 1 71.004 81.514 26.639 
54 C 1 78.591 81.796 19.948 
82 C 1 77.151 82.773 18.195 
83 C 1 77.48 82.608 19.576 
84 C 1 76.552 83.006 20.585 
85 C 1 78.848 81.533 21.328 
86 C 1 78.099 82.211 22.337 
87 C 1 78.386 81.981 23.718 
88 C 1 77.56 82.563 24.727 
90 C 1 78.91 81.465 26.48 
124 C 1 75.198 83.253 20.213 
126 C 1 76.898 82.882 21.966 
127 C 1 75.928 83.165 22.975 
128 C 1 76.287 83.084 24.356 
129 C 1 75.29 83.247 25.365 
130 C 1 77.873 82.37 26.108 
180 C 1 75.656 83.21 26.745 
404 C 1 70.617 74.886 28.551 
460 C 1 71.554 73.878 28.179 
461 C 1 72.389 73.311 29.188 
463 C 1 71.021 74.386 30.941 
464 C 1 70.783 74.666 32.322 
465 C 1 71.483 73.938 33.331 
515 C 1 74.032 72.737 27.436 
516 C 1 73.672 72.812 28.817 
517 C 1 74.672 72.666 29.826 
518 C 1 72.073 73.499 30.569 
519 C 1 72.972 73.037 31.578 
520 C 1 72.635 73.185 32.959 
521 C 1 73.583 72.835 33.968 
522 C 1 71.213 74.187 34.712 
523 C 1 71.996 73.549 35.721 
571 C 1 74.305 72.697 31.206 
573 C 1 74.947 72.66 33.596 
575 C 1 73.231 72.941 35.349 
567 C 1 75.407 72.681 27.064 
568 C 1 76.4 72.866 28.073 
569 C 1 76.043 72.777 29.454 
570 C 1 77.006 73.081 30.463 
572 C 1 75.315 72.673 32.216 
574 C 1 75.953 72.758 34.605 
612 C 1 77.662 73.415 27.701 
613 C 1 78.474 74.015 28.71 
614 C 1 78.192 73.779 30.091 
615 C 1 78.926 74.473 31.1 
616 C 1 76.663 72.949 31.844 
617 C 1 77.582 73.368 32.853 
618 C 1 77.257 73.196 34.234 
619 C 1 78.119 73.723 35.243 
620 C 1 75.59 72.7 35.986 
651 C 1 78.675 74.205 32.481 
652 C 1 79.319 74.983 33.49 
653 C 1 79.102 74.686 34.871 
3778 H 2 75.1159 74.9523 33.5919 
291 C 1 69.847 79.444 27.276 
293 C 1 70.602 81.012 29.029 
295 C 1 70.264 80.464 31.419 
347 C 1 69.709 77.077 27.914 
348 C 1 69.963 79.794 28.657 
349 C 1 69.705 78.817 29.666 
350 C 1 69.777 79.177 31.047 
351 C 1 69.639 78.177 32.056 
352 C 1 70.449 80.782 32.8 
353 C 1 69.995 79.88 33.809 
354 C 1 70.14 80.218 35.19 
403 C 1 70.112 75.761 27.542 
405 C 1 69.66 77.442 29.295 
406 C 1 69.854 76.45 30.304 
407 C 1 69.762 76.806 31.684 
408 C 1 70.075 75.845 32.694 
409 C 1 69.667 78.543 33.437 
410 C 1 69.652 77.533 34.446 
411 C 1 69.635 77.901 35.827 
462 C 1 70.414 75.193 29.932 
466 C 1 69.94 76.188 34.074 
467 C 1 70.367 75.272 35.083 
3771 O 3 73.2483 76.1525 28.06 
3773 H 2 72.961 75.7594 28.8841 
3772 H 2 73.1432 77.0945 28.1939 
3779 H 2 74.0948 75.9425 33.0737 
3754 H 2 71.9556 79.1723 28.1175 
3753 O 3 72.8019 78.9604 27.7236 
3756 O 3 72.8522 77.9437 30.7168 
3757 H 2 73.5756 78.5576 30.5901 
3792 O 3 72.872 77.4768 33.3732 
3794 H 2 72.4062 77.332 34.1968 
3758 H 2 72.7147 77.9269 31.664 
3793 H 2 73.3787 78.2753 33.5212 
3808 H 2 73.7755 76.1855 30.4243 
3781 H 2 74.8617 76.0419 27.8452 
3807 O 3 74.6356 75.7654 30.4222 
3797 H 2 74.5554 79.7118 35.4781 
3766 H 2 74.251 79.9962 27.907 
3809 H 2 74.8898 75.7341 31.3445 
3798 O 3 74.6771 79.6005 33.6453 
3799 H 2 74.5703 79.9409 32.7571 
3785 H 2 74.0163 76.179 35.8917 
3783 O 3 74.7963 75.6364 35.7757 
3767 H 2 75.4542 80.5222 27.1536 
3777 O 3 75.0037 75.664 32.9618 
3782 H 2 76.0468 75.1008 27.8866 
3780 O 3 75.7823 75.9724 27.5925 
3765 O 3 75.1353 80.3388 28.0373 
3774 O 3 75.0461 79.734 30.9028 
3776 H 2 75.0312 80.2612 30.104 
3800 H 2 75.5282 79.1626 33.6338 
3775 H 2 75.8296 79.1907 30.8171 
3790 H 2 76.2498 76.9977 33.3372 
3770 H 2 76.3124 76.9402 30.3729 
3768 O 3 76.9369 77.663 30.4338 
3791 H 2 77.2234 77.8195 32.5195 
3789 O 3 76.8548 77.7368 33.399 
3769 H 2 77.1709 77.8552 29.5257 
3764 H 2 76.4759 77.6411 27.8835 
3762 O 3 77.1062 78.3597 27.8339 
3763 H 2 76.5821 79.1486 27.9727 
61 C 1 80.127 79.023 27.223 
62 C 1 79.831 79.989 28.232 
63 C 1 80.224 78.294 29.985 
64 C 1 80.144 78.932 32.375 
91 C 1 79.143 81.181 27.861 
93 C 1 79.959 79.644 29.613 
94 C 1 79.548 80.567 30.622 
95 C 1 79.718 80.241 32.003 
96 C 1 79.198 81.107 33.012 
97 C 1 80.199 78.569 33.756 
98 C 1 79.988 79.557 34.765 
138 C 1 79.407 80.804 34.393 
646 C 1 80.225 77.65 27.595 
647 C 1 79.37 75.059 28.339 
648 C 1 79.84 75.954 29.348 
649 C 1 79.689 75.618 30.729 
650 C 1 80.047 76.563 31.738 
654 C 1 79.648 75.536 35.88 
676 C 1 80.191 77.284 28.976 
677 C 1 80.234 77.926 31.366 
678 C 1 79.938 76.212 33.118 
679 C 1 80.179 77.193 34.127 
680 C 1 80.113 76.831 35.508 
3805 H 2 77.6302 77.8739 35.6669 
3784 H 2 75.5226 76.2597 35.7627 
181 C 1 74.646 83.251 27.754 
183 C 1 74.007 83.177 30.144 
235 C 1 73.294 82.999 27.383 
236 C 1 72.367 82.596 28.392 
237 C 1 72.695 82.763 29.773 
238 C 1 71.824 82.25 30.782 
239 C 1 74.371 83.229 31.525 
240 C 1 73.381 83.026 32.534 
241 C 1 73.737 83.122 33.915 
242 C 1 72.779 82.801 34.924 
292 C 1 71.26 81.778 28.02 
294 C 1 70.824 81.305 30.41 
296 C 1 72.129 82.456 32.162 
297 C 1 71.327 81.842 33.171 
298 C 1 71.605 82.083 34.552 
299 C 1 70.883 81.376 35.561 
135 C 1 77.949 82.318 31.26 
188 C 1 77.718 82.469 35.03 
182 C 1 75.014 83.259 29.135 
243 C 1 75.473 83.232 35.668 
189 C 1 76.812 82.915 36.039 
139 C 1 78.785 81.601 35.402 
136 C 1 78.244 82.099 32.64 
184 C 1 76.726 82.947 30.888 
134 C 1 78.722 81.667 30.251 
186 C 1 76.108 83.128 33.278 
132 C 1 77.317 82.693 28.498 
137 C 1 77.399 82.651 33.649 
187 C 1 75.106 83.256 34.287 
133 C 1 76.375 83.06 29.507 
92 C 1 78.455 81.921 28.87 
185 C 1 75.747 83.197 31.897 
131 C 1 76.983 82.847 27.117 
469 C 1 70.726 74.738 37.473 
524 C 1 71.697 73.763 37.102 
525 C 1 72.552 73.225 38.111 
527 C 1 71.148 74.252 39.863 
528 C 1 70.9 74.524 41.244 
529 C 1 71.625 73.82 42.253 
576 C 1 74.214 72.709 36.358 
577 C 1 73.851 72.772 37.739 
578 C 1 74.855 72.66 38.748 
579 C 1 72.23 73.402 39.491 
580 C 1 73.144 72.971 40.5 
581 C 1 72.802 73.108 41.881 
582 C 1 73.761 72.791 42.89 
583 C 1 71.346 74.06 43.634 
584 C 1 72.151 73.45 44.643 
624 C 1 74.488 72.679 40.129 
628 C 1 73.406 72.885 44.271 
621 C 1 76.576 72.92 36.995 
622 C 1 76.222 72.818 38.376 
623 C 1 77.174 73.156 39.385 
625 C 1 75.498 72.69 41.138 
626 C 1 75.131 72.663 42.519 
627 C 1 76.133 72.797 43.528 
655 C 1 77.818 73.512 36.624 
656 C 1 78.609 74.14 37.633 
657 C 1 78.335 73.895 39.013 
658 C 1 79.045 74.614 40.022 
659 C 1 76.836 73.012 40.766 
660 C 1 77.74 73.463 41.775 
661 C 1 77.421 73.279 43.156 
662 C 1 78.264 73.836 44.165 
663 C 1 75.772 72.726 44.908 
686 C 1 78.803 74.337 41.403 
688 C 1 79.213 74.832 43.793 
355 C 1 69.799 79.267 36.199 
357 C 1 70.499 80.86 37.951 
358 C 1 70.711 81.16 39.332 
359 C 1 70.18 80.301 40.341 
363 C 1 70.767 81.233 44.484 
412 C 1 69.743 76.896 36.836 
413 C 1 69.902 79.62 37.579 
414 C 1 69.678 78.635 38.589 
415 C 1 69.738 78.998 39.969 
416 C 1 69.635 77.993 40.978 
417 C 1 70.354 80.625 41.722 
418 C 1 69.931 79.707 42.731 
419 C 1 70.065 80.05 44.112 
468 C 1 70.191 75.595 36.464 
470 C 1 69.681 77.259 38.217 
471 C 1 69.91 76.275 39.226 
472 C 1 69.805 76.627 40.607 
473 C 1 70.151 75.678 41.616 
474 C 1 69.65 78.36 42.359 
475 C 1 69.67 77.35 43.368 
476 C 1 69.641 77.717 44.749 
526 C 1 70.513 75.038 38.854 
530 C 1 70.004 76.015 42.997 
531 C 1 70.463 75.115 44.006 
3815 H 2 73.7191 76.6796 41.6053 
3802 H 2 73.8036 76.7513 38.7645 
3813 O 3 73.1502 77.4389 41.4791 
3814 H 2 72.5962 77.4562 42.2595 
3788 H 2 72.307 77.5453 36.8899 
3801 O 3 72.9506 77.1854 38.782 
3803 H 2 72.743 77.2693 39.7126 
3856 H 2 73.427 78.2699 44.4014 
3812 H 2 74.0115 78.8474 39.1466 
3855 O 3 72.8654 77.4952 44.4232 
3827 H 2 74.3436 79.0704 41.8455 
3795 O 3 74.8502 79.3626 36.3191 
3826 H 2 74.7523 80.0953 40.809 
3825 O 3 74.9259 79.8176 41.7084 
3839 H 2 74.9699 79.976 43.504 
3811 H 2 74.5134 79.865 38.1444 
3810 O 3 74.1872 79.7823 39.0405 
3837 O 3 74.9006 79.6892 44.4146 
3786 O 3 72.7904 77.6779 36.0745 
3787 H 2 73.5257 78.2394 36.32 
3830 H 2 75.3027 75.9145 43.7191 
3804 O 3 77.0138 77.518 36.3069 
3838 H 2 75.7526 79.2983 44.6087 
3817 H 2 75.1555 75.6907 37.6687 
3816 O 3 75.2839 76.081 38.5332 
3833 H 2 75.2835 75.7262 40.6428 
3829 H 2 76.4164 75.2898 44.5324 
3831 O 3 75.3716 75.8092 41.5923 
3828 O 3 75.8898 76.0854 44.4556 
3818 H 2 76.0043 76.6997 38.4126 
3832 H 2 76.1238 76.3887 41.7137 
3806 H 2 77.1334 78.0634 37.0844 
3821 H 2 77.4123 78.065 42.459 
3822 O 3 76.9751 78.7271 38.7629 
3819 O 3 77.0297 77.9239 41.5931 
3823 H 2 77.3134 78.6249 39.6525 
3824 H 2 76.2331 79.3246 38.8555 
3820 H 2 76.5213 78.7169 41.4232 
99 C 1 80.087 79.202 36.146 
100 C 1 79.757 80.157 37.155 
101 C 1 80.209 78.477 38.907 
102 C 1 80.232 78.11 40.288 
103 C 1 80.107 79.113 41.297 
142 C 1 79.898 79.818 38.535 
143 C 1 79.455 80.726 39.544 
144 C 1 79.636 80.405 40.925 
146 C 1 80.175 78.751 42.678 
147 C 1 79.929 79.731 43.687 
196 C 1 79.305 80.957 43.315 
681 C 1 80.233 77.834 36.517 
682 C 1 79.468 75.215 37.261 
683 C 1 79.907 76.125 38.27 
684 C 1 79.768 75.785 39.651 
685 C 1 80.093 76.741 40.66 
687 C 1 79.42 75.137 42.412 
689 C 1 79.729 75.701 44.802 
702 C 1 80.211 77.467 37.898 
703 C 1 79.996 76.386 42.041 
704 C 1 80.202 77.375 43.05 
705 C 1 80.149 77.011 44.43 
3849 O 3 77.4121 78.2495 44.3553 
3850 H 2 76.8001 77.5137 44.3704 
3796 H 2 75.6319 78.8526 36.1065 
244 C 1 74.463 83.238 36.677 
245 C 1 74.83 83.258 38.057 
246 C 1 73.826 83.142 39.067 
250 C 1 74.922 83.259 43.209 
300 C 1 73.12 82.939 36.305 
301 C 1 72.208 82.504 37.314 
302 C 1 72.53 82.682 38.695 
303 C 1 71.677 82.14 39.704 
304 C 1 74.189 83.206 40.447 
305 C 1 73.206 82.969 41.456 
306 C 1 73.558 83.077 42.837 
307 C 1 72.612 82.723 43.846 
356 C 1 71.13 81.649 36.942 
360 C 1 71.975 82.356 41.085 
361 C 1 71.194 81.714 42.094 
362 C 1 71.464 81.965 43.475 
140 C 1 79.029 81.325 36.783 
141 C 1 78.316 82.04 37.792 
145 C 1 79.087 81.253 41.934 
190 C 1 77.151 82.773 37.42 
191 C 1 76.197 83.106 38.429 
192 C 1 78.591 81.796 39.173 
193 C 1 77.796 82.42 40.182 
194 C 1 78.099 82.211 41.563 
195 C 1 77.235 82.734 42.572 
197 C 1 78.657 81.732 44.324 
247 C 1 76.552 83.006 39.81 
248 C 1 75.564 83.222 40.819 
249 C 1 75.928 83.165 42.2 
251 C 1 77.56 82.563 43.952 
252 C 1 76.639 82.978 44.962 
308 C 1 75.29 83.247 44.59 
533 C 1 70.841 74.594 46.395 
585 C 1 71.845 73.654 46.024 
586 C 1 72.718 73.146 47.033 
587 C 1 70.617 74.886 47.776 
588 C 1 71.279 74.123 48.785 
589 C 1 71.021 74.386 50.166 
590 C 1 71.771 73.708 51.175 
592 C 1 70.564 74.962 52.928 
629 C 1 74.396 72.687 45.28 
630 C 1 74.032 72.737 46.661 
632 C 1 72.389 73.311 48.414 
633 C 1 73.318 72.912 49.423 
634 C 1 72.972 73.037 50.803 
635 C 1 73.941 72.754 51.813 
636 C 1 71.483 73.938 52.556 
637 C 1 72.309 73.356 53.565 
667 C 1 74.672 72.666 49.051 
671 C 1 73.583 72.835 53.193 
631 C 1 75.039 72.661 47.67 
664 C 1 76.75 72.98 45.918 
665 C 1 76.4 72.866 47.298 
666 C 1 77.34 73.237 48.307 
668 C 1 75.681 72.712 50.06 
669 C 1 75.315 72.673 51.441 
670 C 1 76.311 72.842 52.45 
690 C 1 77.97 73.615 45.546 
691 C 1 78.739 74.27 46.555 
692 C 1 78.474 74.015 47.936 
693 C 1 79.159 74.759 48.945 
694 C 1 77.006 73.081 49.688 
695 C 1 77.894 73.563 50.697 
696 C 1 77.582 73.368 52.078 
697 C 1 78.405 73.954 53.087 
698 C 1 75.953 72.758 53.831 
710 C 1 78.926 74.473 50.325 
712 C 1 79.319 74.983 52.715 
3857 H 2 72.5533 77.4504 45.327 
3883 H 2 73.1901 76.5306 53.0202 
420 C 1 69.756 79.088 45.121 
422 C 1 70.401 80.704 46.873 
423 C 1 70.602 81.012 48.254 
424 C 1 70.102 80.134 49.263 
428 C 1 70.656 81.087 53.406 
477 C 1 69.783 76.717 45.758 
478 C 1 69.847 79.444 46.502 
479 C 1 69.658 78.452 47.511 
480 C 1 69.705 78.817 48.892 
481 C 1 69.637 77.809 49.901 
482 C 1 70.264 80.464 50.644 
483 C 1 69.874 79.532 51.653 
484 C 1 69.995 79.88 53.034 
485 C 1 69.72 78.907 54.043 
532 C 1 70.276 75.432 45.386 
534 C 1 69.709 77.077 47.139 
535 C 1 69.971 76.101 48.148 
536 C 1 69.854 76.45 49.529 
537 C 1 70.233 75.513 50.538 
538 C 1 69.639 78.177 51.281 
539 C 1 69.694 77.168 52.291 
540 C 1 69.652 77.533 53.671 
591 C 1 70.075 75.845 51.919 
3867 O 3 74.8552 75.6101 49.3948 
3868 H 2 74.0905 76.1689 49.5336 
3844 H 2 73.8531 77.0897 47.0498 
3864 O 3 72.9317 77.3265 50.253 
3865 H 2 72.7121 77.2966 51.1842 
3845 H 2 72.8308 77.2969 48.147 
3843 O 3 72.9687 77.42 47.2078 
3866 H 2 73.2981 78.2009 50.1208 
3862 H 2 73.3255 78.9032 52.7482 
3842 H 2 73.6187 79.1838 47.0809 
3863 H 2 73.3741 80.0269 51.7349 
3859 H 2 73.403 80.1367 48.7815 
3858 O 3 73.7184 79.9424 49.6641 
3861 O 3 73.769 79.729 52.5544 
3875 H 2 74.9508 75.2891 51.8428 
3840 O 3 74.1701 79.9611 46.9915 
3841 H 2 74.3386 80.029 46.0517 
3882 O 3 72.5078 77.1814 53.1852 
3860 H 2 74.6723 79.9723 49.5901 
3873 O 3 74.9392 75.7715 52.6695 
3851 H 2 77.4661 78.5356 45.2672 
3847 H 2 75.5504 76.0368 46.3502 
3848 H 2 75.4086 76.0952 47.8563 
3846 O 3 75.7117 76.6039 47.1043 
3874 H 2 75.7969 76.1943 52.7127 
3869 H 2 75.5811 76.0948 49.7877 
3871 H 2 77.8005 76.8177 49.9169 
3876 O 3 77.1781 77.1866 52.9181 
3872 H 2 76.9837 76.962 51.1833 
3870 O 3 76.9536 77.1247 50.2405 
3835 H 2 76.7368 78.1824 46.9685 
3878 H 2 76.8636 78.0885 52.8564 
3853 H 2 76.5341 78.7973 49.6938 
3880 H 2 76.7064 80.041 51.7343 
3834 O 3 76.8694 79.1177 46.8139 
3854 H 2 76.8865 80.0271 48.8843 
3852 O 3 76.4647 79.752 49.6983 
3879 O 3 76.4398 79.7722 52.6135 
3836 H 2 76.0069 79.5086 46.9538 
3881 H 2 75.4854 79.7157 52.5681 
104 C 1 80.234 78.018 45.44 
148 C 1 80.04 79.38 45.068 
149 C 1 79.678 80.323 46.077 
150 C 1 80.188 78.66 47.829 
151 C 1 80.224 78.294 49.21 
152 C 1 80.064 79.292 50.219 
200 C 1 79.831 79.989 47.458 
201 C 1 79.356 80.881 48.467 
202 C 1 79.548 80.567 49.848 
204 C 1 80.144 78.932 51.6 
205 C 1 79.865 79.903 52.609 
206 C 1 79.988 79.557 53.99 
259 C 1 79.198 81.107 52.237 
706 C 1 79.561 75.374 46.183 
707 C 1 79.968 76.299 47.192 
708 C 1 79.84 75.954 48.573 
709 C 1 80.132 76.921 49.582 
711 C 1 79.515 75.294 51.335 
713 C 1 79.805 75.869 53.724 
717 C 1 80.225 77.65 46.82 
718 C 1 80.047 76.563 50.963 
719 C 1 80.219 77.559 51.972 
720 C 1 80.179 77.193 53.353 
3877 H 2 77.4698 77.0956 53.8252 
309 C 1 74.28 83.218 45.599 
310 C 1 74.646 83.251 46.98 
311 C 1 73.647 83.1 47.989 
315 C 1 74.738 83.255 52.131 
364 C 1 72.948 82.873 45.227 
365 C 1 72.052 82.406 46.236 
366 C 1 72.367 82.596 47.617 
367 C 1 71.534 82.024 48.626 
368 C 1 74.007 83.177 49.37 
369 C 1 73.034 82.906 50.379 
370 C 1 73.381 83.026 51.759 
371 C 1 72.448 82.64 52.768 
421 C 1 71.004 81.514 45.864 
425 C 1 71.824 82.25 50.007 
426 C 1 71.066 81.582 51.016 
427 C 1 71.327 81.842 52.397 
254 C 1 76.018 83.147 47.351 
316 C 1 77.399 82.651 52.875 
198 C 1 78.91 81.465 45.705 
253 C 1 76.983 82.847 46.342 
199 C 1 78.172 82.155 46.714 
317 C 1 76.464 83.034 53.884 
256 C 1 77.64 82.517 49.104 
313 C 1 75.381 83.24 49.741 
203 C 1 78.97 81.395 50.857 
260 C 1 78.524 81.859 53.246 
312 C 1 76.375 83.06 48.732 
257 C 1 77.949 82.318 50.485 
255 C 1 78.455 81.921 48.095 
258 C 1 77.067 82.811 51.494 
314 C 1 75.747 83.197 51.122 
372 C 1 75.106 83.256 53.512 
594 C 1 70.96 74.454 55.318 
638 C 1 71.996 73.549 54.946 
639 C 1 72.886 73.071 55.955 
640 C 1 70.726 74.738 56.699 
672 C 1 74.58 72.672 54.202 
673 C 1 74.214 72.709 55.583 
675 C 1 72.552 73.225 57.336 
989 C 1 71.414 73.998 57.708 
990 C 1 71.148 74.252 59.088 
991 C 1 71.92 73.601 60.097 
993 C 1 70.671 74.812 61.85 
1045 C 1 73.494 72.859 58.345 
1046 C 1 73.144 72.971 59.726 
1047 C 1 74.123 72.722 60.735 
1048 C 1 71.625 73.82 61.478 
1049 C 1 72.471 73.267 62.487 
1101 C 1 74.855 72.66 57.973 
1105 C 1 73.761 72.791 62.116 
674 C 1 75.223 72.668 56.592 
699 C 1 76.921 73.046 54.84 
700 C 1 76.576 72.92 56.221 
701 C 1 77.502 73.323 57.23 
714 C 1 78.119 73.723 54.468 
715 C 1 78.865 74.404 55.477 
716 C 1 78.609 74.14 56.858 
1102 C 1 75.862 72.742 58.982 
1103 C 1 75.498 72.69 60.363 
1104 C 1 76.488 72.892 61.372 
1157 C 1 79.267 74.907 57.867 
1158 C 1 77.174 73.156 58.61 