ITEM: TIMESTEP
2339097
ITEM: NUMBER OF ATOMS
5783
ITEM: BOX BOUNDS pp pp pp
0.0000000000000000e+00 1.5000000000000000e+02
0.0000000000000000e+00 1.5000000000000000e+02
0.0000000000000000e+00 2.5000000000000000e+02
ITEM: ATOMS id element type x y z 
4426 C 1 67.8305 68.1279 4.37261 
127 C 1 70.7306 66.5481 6.48879 
128 C 1 73.2324 67.1518 7.6378 
139 C 1 71.6042 67.1759 4.29977 
140 C 1 74.3782 68.091 4.7599 
141 C 1 73.7356 66.0129 5.78052 
149 C 1 72.7981 65.9759 2.1798 
4430 C 1 71.7101 66.7848 7.3682 
4438 C 1 70.338 66.9637 3.90268 
4440 C 1 72.8742 66.7675 5.06632 
4441 C 1 73.5855 68.2449 6.6148 
4450 C 1 71.8288 66.6494 1.52654 
4452 C 1 73.8918 65.5122 2.81427 
4453 C 1 72.9552 68.1587 4.0855 
125 C 1 68.7759 68.0422 5.41026 
137 C 1 69.2466 67.3267 3.21619 
4428 C 1 69.6651 67.0082 5.78463 
4436 C 1 68.8996 68.274 2.28545 
4449 C 1 69.8802 68.4205 1.08304 
4462 C 1 74.5573 66.8703 0.790297 
147 C 1 71.2374 67.6552 0.746443 
151 C 1 75.0042 65.2881 3.54968 
142 C 1 75.8756 67.0664 6.79077 
152 C 1 76.3267 68.5803 4.02914 
153 C 1 77.2243 65.4341 4.84737 
155 C 1 78.7621 66.3938 6.76914 
163 C 1 75.3635 66.6449 2.07464 
165 C 1 77.7392 66.9662 3.60827 
4442 C 1 75.1239 65.922 5.82783 
4454 C 1 75.8216 65.4536 4.69272 
4455 C 1 75.2551 67.8956 5.57178 
4456 C 1 78.2286 65.7998 5.68 
4457 C 1 76.5058 68.047 7.78247 
4464 C 1 76.7236 66.9477 2.65652 
4466 C 1 78.8873 67.2765 4.2563 
4467 C 1 77.1461 68.4625 5.06477 
4477 C 1 76.9719 67.7843 1.36375 
4478 C 1 79.444 67.2915 1.59901 
167 C 1 80.0222 67.7225 4.84226 
177 C 1 80.4661 67.3967 2.46113 
4468 C 1 81.0188 68.3232 5.54885 
143 C 1 75.7775 65.6591 7.67479 
175 C 1 78.3898 67.7311 0.797351 
162 C 1 76.0025 67.3214 0.305518 
154 C 1 78.0042 68.7142 6.04395 
4480 C 1 81.4187 67.8503 3.28543 
179 C 1 82.2773 68.5724 4.01527 
99 C 1 66.6507 72.9611 7.0714 
100 C 1 68.5594 71.5153 6.88702 
108 C 1 68.4956 74.7411 1.35856 
109 C 1 66.2409 74.4648 3.22132 
111 C 1 67.0144 72.0625 4.13403 
121 C 1 65.9757 70.9146 2.26365 
4400 C 1 66.6699 74.1673 6.3536 
4410 C 1 66.5261 73.2423 3.71101 
4412 C 1 67.6342 71.0221 4.73381 
4422 C 1 65.9434 71.9894 1.46059 
4424 C 1 66.3833 69.827 2.92768 
113 C 1 68.3356 70.511 5.84704 
123 C 1 67.0196 68.848 3.58047 
135 C 1 68.5232 69.6898 1.82148 
4434 C 1 67.964 69.9149 0.433745 
119 C 1 66.5088 72.7952 0.53346 
4402 C 1 67.436 71.9507 7.68305 
4414 C 1 68.8044 69.2031 6.22993 
126 C 1 73.0668 69.1695 5.8135 
138 C 1 72.7713 69.2867 3.13137 
148 C 1 72.8215 69.4373 0.350333 
150 C 1 74.6738 69.4898 2.17443 
4429 C 1 72.2964 69.3061 7.71202 
4439 C 1 72.2245 69.7864 4.98851 
4451 C 1 72.0297 69.7933 2.15354 
4463 C 1 73.7943 69.7512 1.2133 
98 C 1 70.485 73.2377 6.38882 
110 C 1 69.5719 73.1698 3.16653 
112 C 1 70.4135 71.6575 5.16355 
120 C 1 68.8935 72.7526 0.616956 
4411 C 1 70.7195 74.053 5.35637 
4413 C 1 69.7335 72.2744 6.9404 
4423 C 1 69.1749 73.9637 2.18255 
114 C 1 71.8404 70.2881 6.93051 
122 C 1 69.334 70.7591 2.33534 
124 C 1 71.2624 70.1572 4.14985 
136 C 1 70.9855 69.5363 1.37157 
4425 C 1 69.9139 72.3808 4.17276 
4427 C 1 71.104 71.0167 6.09743 
4435 C 1 69.3605 71.951 1.59554 
4437 C 1 70.2673 70.4951 3.33576 
96 C 1 70.5336 74.7061 4.21098 
115 C 1 69.0642 69.1292 7.63546 
5536 H 2 75.0023 73.7556 7.35715 
4465 C 1 75.4659 68.9892 3.11041 
164 C 1 76.8103 69.2915 1.66235 
166 C 1 78.4186 70.3919 3.36987 
156 C 1 80.2036 69.6331 7.30984 
168 C 1 79.3081 70.8775 5.79146 
170 C 1 79.9905 72.461 7.76905 
176 C 1 78.5574 70.0427 0.200563 
178 C 1 79.9449 71.0115 2.16678 
4469 C 1 78.9834 69.184 6.80435 
4479 C 1 77.5635 70.1103 2.39374 
4481 C 1 79.0036 70.5245 4.55155 
4491 C 1 79.1878 70.8223 1.09048 
180 C 1 80.7408 71.5714 4.58093 
182 C 1 80.8832 73.5293 6.33305 
188 C 1 81.2223 72.7552 1.5614 
190 C 1 80.3489 73.6756 3.84499 
4483 C 1 79.5331 71.5594 6.90564 
4493 C 1 80.5124 71.0854 3.36513 
4495 C 1 80.7495 72.4401 5.58509 
4503 C 1 80.497 72.9763 2.71692 
4317 C 1 80.6355 74.6645 4.68664 
193 C 1 83.1657 72.7905 1.09608 
169 C 1 81.3635 69.194 6.62091 
187 C 1 81.8542 69.3263 2.0095 
4470 C 1 82.5625 69.7133 7.16743 
4482 C 1 82.9923 69.4609 4.71494 
4490 C 1 81.3708 69.3243 0.613355 
181 C 1 83.5494 70.4966 5.35435 
183 C 1 83.7935 72.8952 6.46801 
189 C 1 83.0244 71.2186 3.56593 
191 C 1 83.7739 73.6697 4.35972 
194 C 1 81.4947 73.8181 0.717013 
195 C 1 84.1818 74.6407 2.63415 
4484 C 1 83.8545 71.6903 5.87821 
4486 C 1 83.225 73.7656 7.32194 
4492 C 1 82.3876 70.5952 2.4923 
4494 C 1 83.4952 72.394 4.04123 
4496 C 1 83.8284 74.9357 4.82349 
4501 C 1 82.1871 71.5534 1.35733 
4502 C 1 83.8534 73.4837 2.02969 
4313 C 1 81.4658 74.593 6.86737 
186 C 1 81.8112 70.7536 0.151138 
97 C 1 66.3962 75.3972 5.46263 
4421 C 1 67.2245 75.5277 1.06768 
91 C 1 68.3611 80.4499 0.841452 
85 C 1 67.3541 77.7694 5.45113 
86 C 1 67.9821 75.112 6.64062 
93 C 1 66.6141 79.3116 2.52648 
95 C 1 65.6441 77.0764 3.68445 
107 C 1 67.0376 76.9759 1.84041 
4374 C 1 67.804 80.281 7.55447 
4384 C 1 67.2797 79.0316 5.03187 
4385 C 1 68.4954 78.5193 6.91148 
4386 C 1 67.3997 76.4686 5.83286 
4396 C 1 66.0485 78.237 3.11892 
4398 C 1 65.5733 75.9205 4.41856 
4407 C 1 68.6091 77.1991 1.77086 
4408 C 1 66.3612 75.5532 2.47449 
71 C 1 67.6151 81.2135 6.58709 
83 C 1 67.5252 80.2748 4.6176 
4394 C 1 67.3524 80.1854 1.79769 
4406 C 1 66.9636 78.1545 0.75345 
4387 C 1 67.0473 76.6978 7.78229 
4399 C 1 69.1219 75.4832 5.61843 
4409 C 1 70.0756 75.4348 3.19585 
84 C 1 69.7454 76.4045 4.91303 
94 C 1 69.4157 76.2987 2.43171 
4397 C 1 70.1434 77.2864 4.01074 
58 C 1 71.0929 79.6219 6.58041 
68 C 1 70.272 80.8049 4.08513 
70 C 1 69.0697 79.1884 5.90731 
80 C 1 70.2464 80.1658 1.42804 
82 C 1 70.3525 78.0836 2.97543 
92 C 1 69.0069 78.1553 0.847672 
4371 C 1 71.661 80.4254 5.68917 
4373 C 1 70.2052 79.3629 7.54365 
4381 C 1 71.2222 80.4055 3.15533 
4383 C 1 69.5893 79.9427 4.93529 
4395 C 1 70.4039 78.9917 2.01013 
66 C 1 72.1526 80.3616 2.19759 
4357 C 1 73.445 80.9095 6.74701 
4379 C 1 72.9559 80.7402 1.19783 
42 C 1 74.5335 80.8426 5.99238 
4405 C 1 68.7634 79.3073 0.0911912 
14 C 1 79.0802 78.8597 5.87733 
26 C 1 79.5505 79.5144 3.43974 
27 C 1 81.1136 81.038 4.41051 
28 C 1 78.1487 80.9786 5.06809 
36 C 1 79.5656 79.1185 0.762442 
38 C 1 77.8958 80.0051 2.43107 
4321 C 1 80.89 78.5065 7.64589 
4327 C 1 79.8082 78.1078 5.06732 
4329 C 1 78.712 79.858 6.66038 
4339 C 1 79.9333 78.535 2.63861 
4341 C 1 78.996 80.4454 4.19893 
12 C 1 80.5352 77.392 4.22743 
24 C 1 80.6595 77.8054 1.79421 
196 C 1 81.1753 75.9134 2.1839 
4323 C 1 81.1622 75.0934 1.13599 
30 C 1 76.2955 80.7842 6.9367 
4343 C 1 77.2115 81.0023 6.00355 
4351 C 1 78.7795 80.093 1.37409 
4353 C 1 77.1191 80.498 3.39728 
4349 C 1 80.9329 79.2065 0.39532 
4355 C 1 75.4474 81.0867 5.06807 
192 C 1 81.0721 75.7593 5.29235 
4325 C 1 81.059 76.581 3.32269 
16 C 1 79.1846 81.1994 7.21193 
184 C 1 82.8861 75.2824 7.03906 
15 C 1 81.7204 80.9106 6.9665 
4320 C 1 82.2316 79.8922 6.28086 
4326 C 1 81.9264 80.1306 3.80055 
4338 C 1 81.5235 81.2126 1.95043 
5 C 1 83.5176 75.8859 5.78348 
6 C 1 81.7515 78.2554 6.36511 
11 C 1 84.0817 77.0652 3.74156 
13 C 1 82.9615 78.8522 5.37203 
23 C 1 83.8939 77.079 1.54813 
25 C 1 82.645 79.1651 3.15755 
4314 C 1 83.4481 77.2058 6.49535 
4318 C 1 83.6906 78.1058 4.49325 
4319 C 1 81.4874 76.847 5.89827 
4324 C 1 83.0359 78.1138 2.29495 
4337 C 1 81.9635 77.5754 1.38523 
4504 C 1 84.2452 75.8902 3.11764 
4508 C 1 83.6532 76.1435 0.358242 
22 C 1 82.4216 76.9592 0.186408 
35 C 1 81.6796 80.1534 1.12758 
4382 C 1 68.0183 81.3897 4.0748 
4372 C 1 68.3181 82.1657 5.9258 
81 C 1 68.6919 82.225 3.27653 
69 C 1 69.6083 82.6742 5.74109 
4370 C 1 70.4034 82.3286 4.52218 
4380 C 1 69.4315 82.5458 2.21669 
4393 C 1 69.5187 81.5489 1.07147 
43 C 1 74.1398 83.5313 6.72484 
44 C 1 72.3002 81.5121 7.23929 
54 C 1 73.7521 81.7446 3.02823 
55 C 1 73.7519 83.5535 4.74157 
56 C 1 71.8514 81.7185 4.89075 
57 C 1 71.8366 82.7071 6.62595 
64 C 1 73.4839 81.5376 0.275279 
65 C 1 73.1114 84.4006 2.66689 
67 C 1 70.5757 83.4356 3.58783 
79 C 1 70.54 83.6791 1.92643 
4356 C 1 72.6409 83.0775 5.40823 
4358 C 1 70.4325 82.9457 6.85925 
4366 C 1 74.1644 83.889 1.88892 
4368 C 1 71.7709 84.2449 2.90887 
4369 C 1 72.8143 81.4726 3.72596 
4378 C 1 70.9981 83.4656 0.522371 
63 C 1 74.1222 84.0429 0.528354 
4367 C 1 74.7996 82.5861 2.34443 
4354 C 1 74.9046 83.6123 4.05145 
31 C 1 77.568 82.9972 7.72504 
29 C 1 79.3151 82.2459 6.08366 
37 C 1 80.8221 82.0884 2.68726 
4328 C 1 80.2446 81.8379 5.0956 
4340 C 1 79.8389 82.7162 3.34613 
4350 C 1 79.0225 81.4786 0.81213 
39 C 1 78.7426 83.1051 4.01019 
40 C 1 76.2826 81.4069 4.02539 
41 C 1 76.445 83.5244 5.3225 
51 C 1 78.385 82.5998 1.89484 
52 C 1 75.3171 81.821 1.14565 
53 C 1 76.072 82.7378 3.30542 
4330 C 1 78.3145 83.2737 6.4739 
4342 C 1 77.5748 83.3534 4.6195 
4344 C 1 75.2952 83.6206 6.01056 
4352 C 1 77.4039 83.0006 2.52878 
4365 C 1 76.3399 82.1364 0.320168 
50 C 1 77.814 82.065 0.0646041 
117 C 1 70.9632 68.3894 9.84517 
118 C 1 72.511 68.0135 10.167 
129 C 1 73.3668 67.5822 9.19251 
334 C 1 71.8397 68.4542 14.9994 
344 C 1 72.1798 68.3335 12.5711 
345 C 1 72.6882 68.1887 13.897 
346 C 1 74.0646 67.9611 14.1664 
357 C 1 73.0507 68.0814 11.4774 
358 C 1 74.46 67.9333 11.7622 
130 C 1 74.8098 67.1724 9.54756 
4443 C 1 74.6347 66.4204 8.21632 
116 C 1 71.5773 68.0746 8.28444 
4416 C 1 70.0114 68.4975 8.43032 
347 C 1 74.5742 67.87 15.4894 
359 C 1 74.9727 67.9775 13.085 
4458 C 1 78.686 67.1645 7.88679 
131 C 1 75.4032 67.697 10.7064 
132 C 1 76.7709 68.0917 10.9305 
144 C 1 77.6814 67.9169 8.54504 
145 C 1 77.6889 68.4308 9.89039 
360 C 1 76.3612 68.1191 13.3471 
361 C 1 76.8607 68.1697 14.6755 
362 C 1 78.1807 68.6236 14.948 
371 C 1 77.2407 68.3659 12.2599 
4444 C 1 76.6359 64.6355 7.8998 
4401 C 1 68.5312 74.8055 8.00542 
76 C 1 67.0829 74.5941 11.2051 
88 C 1 68.3866 74.2454 9.07825 
89 C 1 67.2271 73.6936 10.034 
90 C 1 67.4135 72.247 10.3552 
101 C 1 67.5368 71.3388 9.15224 
305 C 1 67.8076 74.7409 14.7892 
306 C 1 67.944 73.3587 15.0729 
315 C 1 67.4506 74.1859 12.4755 
316 C 1 67.7626 72.8213 12.7085 
317 C 1 68.0948 72.4235 14.0247 
329 C 1 67.9181 71.8777 11.6409 
4388 C 1 66.4162 74.3207 8.76051 
102 C 1 68.616 70.2157 9.75979 
4415 C 1 68.3593 70.1077 8.2929 
318 C 1 68.7182 71.1867 14.3089 
330 C 1 68.7427 70.7291 11.9595 
5535 O 3 74.6312 74.3881 7.97231 
5537 H 2 74.3784 73.8639 8.73223 
103 C 1 69.2274 69.9293 10.9091 
104 C 1 70.3065 69.0298 11.0435 
331 C 1 69.1854 70.402 13.2458 
332 C 1 70.1847 69.4156 13.4425 
333 C 1 70.6201 69.1329 14.7603 
343 C 1 70.8773 68.8604 12.3262 
319 C 1 69.0435 70.795 15.6172 
5129 H 2 72.0218 74.6464 11.4671 
5127 O 3 71.5519 73.813 11.4378 
5128 H 2 70.8957 73.883 12.1312 
4715 H 2 72.9299 72.8896 12.9874 
5644 H 2 73.4052 71.9848 11.1884 
5643 O 3 73.4097 72.0029 10.2314 
5645 H 2 72.5548 72.3623 9.99421 
4713 O 3 73.6134 72.2419 13.1591 
4714 H 2 73.5005 72.0126 14.0815 
4529 H 2 74.8374 73.5803 12.3505 
5755 H 2 75.4427 71.9363 14.0089 
4569 O 3 77.7807 74.6774 14.8334 
5382 O 3 77.0165 72.5986 10.6547 
5383 H 2 76.1647 72.1621 10.6691 
4485 C 1 80.967 73.185 8.30107 
146 C 1 78.6159 69.4774 10.1974 
157 C 1 78.9515 70.3658 9.16742 
372 C 1 78.5112 68.982 12.5397 
373 C 1 78.9674 69.1286 13.8776 
374 C 1 80.0909 69.9495 14.1685 
381 C 1 79.233 69.6061 11.4742 
382 C 1 80.4264 70.3861 11.7369 
383 C 1 80.7415 70.65 13.1155 
4471 C 1 80.1991 70.3366 8.52219 
375 C 1 80.4497 70.2147 15.5218 
4528 H 2 76.1265 73.8725 11.6124 
4527 O 3 75.4045 74.2998 12.0732 
5756 H 2 76.801 72.5872 14.1612 
5754 O 3 76.1833 72.0105 14.6107 
5384 H 2 77.0393 73.0526 9.81231 
5163 O 3 78.0372 74.639 9.18071 
5649 O 3 79.2863 74.2013 12.1416 
5651 H 2 78.6483 73.6212 11.7262 
5650 H 2 79.0104 74.2451 13.0572 
5165 H 2 78.9898 74.5664 9.1222 
4571 H 2 78.449 74.8414 15.4987 
158 C 1 81.2534 70.664 9.38619 
159 C 1 81.3024 71.0014 10.7596 
160 C 1 82.1245 72.0836 11.1309 
171 C 1 83.0796 70.6039 8.05621 
172 C 1 82.4762 73.1502 8.46165 
173 C 1 82.8684 72.8339 10.0486 
174 C 1 83.0774 74.3122 10.4599 
217 C 1 82.8162 74.8043 11.7455 
384 C 1 81.598 71.735 13.4575 
385 C 1 81.7786 72.1296 14.8051 
386 C 1 82.2403 73.4295 15.1244 
389 C 1 82.1543 72.5516 12.4428 
390 C 1 82.5463 73.8735 12.7689 
391 C 1 82.4692 74.3536 14.0886 
4472 C 1 83.1204 71.6867 8.81388 
72 C 1 67.8507 77.8578 7.95737 
304 C 1 67.7089 75.2031 13.4502 
62 C 1 68.6923 79.0268 10.2159 
73 C 1 68.0653 78.1295 9.33197 
74 C 1 67.5967 77.0862 10.1108 
75 C 1 67.1144 75.9189 10.9591 
87 C 1 66.5501 75.4797 8.08158 
290 C 1 68.3293 77.4654 14.21 
301 C 1 68.6027 78.5457 11.5406 
302 C 1 67.8576 77.1454 11.7965 
303 C 1 67.9485 76.5848 13.188 
291 C 1 68.1754 77.0309 15.5521 
5024 H 2 70.9307 76.9083 8.47352 
5022 O 3 71.2488 77.3397 9.26663 
5023 H 2 72.2025 77.3006 9.19506 
5055 O 3 74.0867 77.1522 8.81317 
5118 O 3 74.8427 78.1489 13.8944 
5120 H 2 74.0232 78.4778 13.5249 
5056 H 2 74.2809 76.4021 8.25117 
289 C 1 68.9688 78.7095 13.9337 
48 C 1 70.4831 80.6573 11.0631 
60 C 1 69.1193 80.0913 8.33456 
61 C 1 69.53 80.3275 9.95831 
276 C 1 70.8857 80.7566 13.4434 
277 C 1 70.4789 80.4529 14.7616 
278 C 1 69.4969 79.4619 15.0154 
287 C 1 70.164 80.2102 12.356 
288 C 1 69.22 79.1777 12.6151 
4359 C 1 71.6521 81.1532 8.42107 
5057 H 2 74.8969 77.3038 9.29971 
5183 H 2 77.0045 76.9904 11.9186 
5119 H 2 75.2938 77.7429 13.1541 
5181 O 3 76.0487 76.9386 11.9253 
5182 H 2 75.8585 76.0036 11.8494 
5389 H 2 75.0979 76.4194 15.2125 
5489 H 2 79.0915 75.9481 11.9056 
5487 O 3 78.856 76.7374 11.4179 
5164 H 2 77.8875 75.4566 9.6554 
5488 H 2 79.6561 77.2627 11.4108 
4345 C 1 75.449 81.0192 7.94003 
4322 C 1 80.5118 80.9449 7.95925 
8 C 1 80.7446 79.4946 8.59098 
10 C 1 80.6054 80.4436 10.4277 
222 C 1 80.8081 79.5586 15.145 
232 C 1 80.6228 79.9086 12.7617 
233 C 1 80.2163 80.2446 14.0684 
234 C 1 79.133 81.1235 14.3139 
245 C 1 80.044 80.6131 11.6924 
17 C 1 80.021 81.1563 9.43616 
4570 H 2 77.0322 75.2063 15.1097 
392 C 1 82.4315 75.7394 14.3664 
221 C 1 81.5743 78.3993 14.8768 
220 C 1 81.8467 77.9719 13.5577 
219 C 1 82.3311 76.6621 13.3089 
218 C 1 82.5735 76.2076 11.9948 
4316 C 1 82.5643 78.6916 8.72262 
4315 C 1 83.0271 76.174 8.16822 
4 C 1 81.8702 78.4337 11.1918 
3 C 1 82.4187 77.1717 10.9608 
2 C 1 82.6976 76.7417 9.70491 
7 C 1 83.0148 77.7826 7.84345 
9 C 1 81.6 79.2889 9.98998 
231 C 1 81.4828 78.8165 12.4797 
1 C 1 83.0776 75.252 9.5048 
262 C 1 72.9135 81.8532 14.2709 
46 C 1 72.1212 81.8097 9.56222 
263 C 1 72.4202 81.6936 15.5839 
4360 C 1 69.5673 81.5839 8.86228 
47 C 1 71.6464 81.4302 10.8301 
273 C 1 73.8292 82.2593 11.632 
260 C 1 74.7781 82.2889 12.6765 
261 C 1 74.2639 82.1961 13.9959 
34 C 1 74.2602 82.6165 10.3579 
275 C 1 72.0698 81.4949 13.2038 
274 C 1 72.5106 81.7715 11.8982 
45 C 1 73.3101 82.5835 9.32209 
59 C 1 69.9262 82.6225 8.13827 
4346 C 1 73.8725 83.0505 8.00762 
250 C 1 75.1625 82.293 15.0757 
246 C 1 78.8465 81.3806 11.9077 
32 C 1 75.1471 82.3604 8.56902 
259 C 1 76.1805 82.2788 12.3798 
248 C 1 77.0536 82.0699 13.4777 
18 C 1 78.6989 81.6724 9.53623 
20 C 1 76.7451 82.334 11.0728 
247 C 1 78.3591 81.5816 13.2239 
33 C 1 75.819 82.808 10.0152 
4332 C 1 76.4766 83.3459 8.53677 
4331 C 1 78.2351 81.8427 8.22827 
249 C 1 76.5486 82.1833 14.8009 
19 C 1 78.0639 81.8517 10.7996 
313 C 1 71.5564 68.6005 21.144 
314 C 1 72.8384 68.045 21.398 
322 C 1 71.4863 68.6185 17.4128 
323 C 1 71.9353 68.3967 18.7376 
324 C 1 73.2557 67.937 18.9896 
325 C 1 73.7344 67.8253 20.3201 
335 C 1 72.3134 68.2517 16.3221 
336 C 1 73.667 67.9038 16.5773 
337 C 1 74.1604 67.8017 17.9049 
553 C 1 73.3014 67.9106 22.7304 
554 C 1 74.6819 67.7018 22.9925 
326 C 1 75.1268 67.709 20.5815 
327 C 1 75.6085 67.718 21.9173 
328 C 1 76.9835 67.9552 22.1893 
338 C 1 75.5583 67.7799 18.1674 
339 C 1 76.0458 67.7986 19.5026 
340 C 1 77.4053 68.1154 19.7765 
341 C 1 77.8587 68.2666 21.1158 
349 C 1 76.4642 67.9502 17.0874 
350 C 1 77.8059 68.3358 17.3622 
351 C 1 78.2569 68.4893 18.7031 
348 C 1 75.9703 67.9327 15.7544 
272 C 1 67.792 74.7009 22.2287 
284 C 1 67.8445 74.2589 19.8407 
285 C 1 67.9069 73.7752 21.1668 
286 C 1 68.2794 72.4323 21.4378 
294 C 1 67.9162 73.8155 17.4566 
295 C 1 68.0066 73.339 18.782 
296 C 1 68.4461 72.0188 19.0554 
297 C 1 68.6634 71.5811 20.3783 
307 C 1 68.1006 72.9013 16.3995 
308 C 1 68.6054 71.6083 16.6781 
525 C 1 68.4637 71.9813 22.7631 
298 C 1 69.425 70.4118 20.6344 
299 C 1 69.7434 70.0441 21.9604 
300 C 1 70.7784 69.1067 22.2143 
309 C 1 68.862 71.1859 17.9963 
310 C 1 69.6876 70.0608 18.2449 
311 C 1 70.0408 69.7163 19.5679 
312 C 1 71.1339 68.8463 19.8163 
321 C 1 70.3323 69.4062 17.17 
526 C 1 69.1585 70.7711 23.0238 
320 C 1 69.9432 69.728 15.8506 
4804 H 2 71.2491 74.3903 21.8761 
5349 O 3 72.4191 74.4992 17.2053 
5351 H 2 72.3793 74.5781 18.1584 
5006 H 2 73.8258 71.8843 16.6045 
5005 H 2 72.724 72.8221 16.1591 
5004 O 3 73.2317 72.0619 15.8753 
5350 H 2 73.2626 74.8841 16.9676 
4811 H 2 75.1167 72.7468 21.1162 
5782 H 2 76.8423 73.5568 23.3628 
4809 O 3 75.5199 72.003 21.564 
4810 H 2 75.8466 71.4459 20.8576 
363 C 1 78.6297 68.7715 16.29 
342 C 1 79.0885 68.9213 21.4003 
352 C 1 79.4508 69.2064 18.9923 
353 C 1 79.8274 69.4932 20.3332 
354 C 1 80.7836 70.5025 20.6304 
355 C 1 81.0619 70.8926 21.9653 
364 C 1 79.7875 69.5429 16.5825 
365 C 1 80.1544 69.8272 17.9279 
366 C 1 81.0562 70.8819 18.2355 
577 C 1 79.4787 69.1966 22.7384 
578 C 1 80.4915 70.1512 23.0277 
5098 H 2 77.1227 72.8207 21.2347 
5097 O 3 77.9478 72.9115 20.7581 
5173 H 2 75.0739 74.2443 18.6178 
5174 H 2 75.9943 73.0821 18.3115 
5099 H 2 77.6869 73.0016 19.8415 
5172 O 3 75.2952 73.3582 18.9041 
5504 H 2 78.9963 74.6684 21.8337 
4635 O 3 77.1973 72.6688 17.2424 
4515 O 3 79.1557 74.8483 17.4917 
4636 H 2 77.7194 73.4391 17.0183 
4637 H 2 77.133 72.1762 16.4241 
4517 H 2 79.972 74.3857 17.6808 
356 C 1 81.7184 72.1184 22.2583 
367 C 1 81.3117 71.2799 19.5725 
368 C 1 81.8945 72.5402 19.8732 
369 C 1 82.0297 73.0031 21.2021 
370 C 1 82.2684 74.3734 21.4882 
377 C 1 81.5431 71.6929 17.1847 
378 C 1 82.0592 72.9781 17.4947 
379 C 1 82.1593 73.4445 18.8231 
380 C 1 82.3158 74.8252 19.1105 
387 C 1 82.2889 73.8968 16.4519 
413 C 1 82.2846 74.8599 22.8133 
376 C 1 81.3092 71.2974 15.8442 
293 C 1 67.8378 75.2008 17.1724 
268 C 1 68.5989 78.337 19.0191 
269 C 1 68.3695 77.9024 20.3483 
270 C 1 67.9476 76.5741 20.6253 
271 C 1 67.8513 76.0934 21.9534 
280 C 1 68.4718 77.9075 16.6197 
281 C 1 68.2535 77.4758 17.9507 
282 C 1 67.9047 76.1302 18.233 
283 C 1 67.8271 75.6505 19.5614 
497 C 1 68.5305 78.307 22.7475 
498 C 1 68.0301 77.0051 23.0206 
292 C 1 67.8872 75.6751 15.8421 
4803 O 3 71.419 75.1938 21.3844 
4805 H 2 71.1045 75.8952 21.9547 
5427 O 3 73.8185 76.023 21.2087 
5429 H 2 74.3279 75.7335 20.4518 
5328 O 3 73.4305 78.1577 18.6277 
258 C 1 68.7766 78.7348 21.4188 
244 C 1 70.2535 80.5141 22.2235 
255 C 1 71.0515 81.0795 19.5584 
256 C 1 69.961 80.206 19.8215 
257 C 1 69.6036 79.8592 21.1489 
265 C 1 70.7486 80.7882 17.1593 
266 C 1 69.7102 79.8559 17.4196 
267 C 1 69.3598 79.5055 18.7474 
279 C 1 69.1666 79.1106 16.3462 
264 C 1 71.1878 81.0362 15.8375 
5176 H 2 74.9633 78.5089 21.9635 
5177 H 2 74.5621 79.946 21.7073 
5175 O 3 74.8048 79.1363 21.2582 
5428 H 2 73.0284 75.483 21.187 
5329 H 2 73.4104 78.218 19.5828 
5330 H 2 72.5376 77.9135 18.3839 
4724 H 2 75.0418 76.9495 18.3081 
4722 O 3 75.4047 76.1067 18.5805 
4904 H 2 75.1058 79.5309 17.1241 
4723 H 2 76.3219 76.2936 18.7802 
4895 H 2 78.1643 75.9689 20.3767 
5502 O 3 78.5627 75.4348 22.209 
5503 H 2 79.0069 75.5765 23.045 
4902 O 3 75.7932 79.0764 16.6372 
4903 H 2 75.4304 78.9636 15.7586 
5611 H 2 76.3232 78.9202 20.3091 
5610 O 3 77.2569 78.7326 20.4056 
5612 H 2 77.3587 78.4877 21.3253 
4910 H 2 77.2034 76.4126 23.2469 
4894 H 2 77.8337 77.2938 19.7231 
4893 O 3 78.0148 76.3754 19.5231 
4516 H 2 79.0192 75.4146 18.2512 
204 C 1 81.233 78.8401 19.9142 
205 C 1 80.9515 79.2455 21.2358 
206 C 1 80.0468 80.3067 21.4965 
210 C 1 81.0283 79.2153 17.5306 
211 C 1 80.718 79.6096 18.849 
212 C 1 79.7537 80.6177 19.107 
213 C 1 79.353 80.9181 20.4281 
223 C 1 80.4706 79.9426 16.4593 
224 C 1 79.4498 80.8927 16.7138 
225 C 1 79.0298 81.1817 18.0326 
441 C 1 79.6714 80.6264 22.8198 
5390 H 2 75.536 76.0631 16.6172 
5388 O 3 75.6013 75.7729 15.7074 
197 C 1 82.2934 75.3108 20.4342 
198 C 1 82.0987 76.6893 20.7073 
199 C 1 81.9603 77.158 22.0304 
200 C 1 81.4276 78.4454 22.2973 
201 C 1 82.2959 75.7636 18.059 
202 C 1 82.0165 77.1265 18.3283 
203 C 1 81.8407 77.5865 19.6494 
209 C 1 81.7124 78.0029 17.2661 
388 C 1 82.3631 75.2819 16.7375 
414 C 1 82.1734 76.2479 23.0883 
207 C 1 82.3012 76.214 15.6842 
208 C 1 81.9271 77.5526 15.9473 
243 C 1 71.3922 81.3232 21.9599 
254 C 1 71.496 81.3221 18.2353 
230 C 1 74.0421 82.2446 21.4526 
240 C 1 73.6437 82.1656 19.0547 
241 C 1 73.1457 82.0511 20.3753 
242 C 1 71.8403 81.551 20.6352 
251 C 1 74.6399 82.2869 16.3923 
252 C 1 73.2679 82.0314 16.6595 
253 C 1 72.768 81.9017 17.9767 
469 C 1 73.5468 82.1556 22.7758 
470 C 1 72.2137 81.7384 23.0359 
239 C 1 75.0316 82.3291 18.7925 
214 C 1 78.1578 81.6388 20.6867 
215 C 1 77.6924 81.8228 22.0091 
216 C 1 76.3492 82.2027 22.2684 
226 C 1 77.7936 81.8304 18.2904 
227 C 1 77.3101 81.9913 19.6111 
228 C 1 75.9444 82.2833 19.8717 
229 C 1 75.4374 82.3149 21.1928 
237 C 1 76.9293 82.1178 17.2088 
238 C 1 75.5482 82.3204 17.4736 
442 C 1 78.522 81.4166 23.0797 
236 C 1 77.4248 81.9697 15.8887 
235 C 1 78.6958 81.3972 15.6317 
518 C 1 71.5808 68.5742 28.6018 
519 C 1 72.0008 68.3562 29.9362 
520 C 1 73.3198 67.9029 30.2032 
530 C 1 71.9957 68.3727 26.2024 
531 C 1 72.431 68.1847 27.5365 
532 C 1 73.7743 67.8089 27.8021 
533 C 1 74.2416 67.7435 29.1377 
540 C 1 72.4168 68.1951 23.8018 
541 C 1 72.8653 68.0333 25.1352 
542 C 1 74.2294 67.7388 25.3991 
543 C 1 74.7019 67.7019 26.7347 
567 C 1 77.4411 68.0916 23.527 
534 C 1 75.6356 67.7272 29.4073 
535 C 1 76.1045 67.7879 30.7427 
536 C 1 77.4558 68.1289 31.0146 
544 C 1 76.0947 67.7686 27.0046 
545 C 1 76.56 67.8589 28.3404 
546 C 1 77.8876 68.2822 28.6141 
547 C 1 78.3155 68.4922 29.9484 
555 C 1 75.1588 67.69 24.3283 
556 C 1 76.5454 67.8419 24.5989 
557 C 1 77.0075 67.9566 25.9353 
558 C 1 78.3069 68.4604 26.2116 
568 C 1 78.7069 68.6741 23.807 
559 C 1 78.7223 68.6974 27.5466 
511 C 1 67.8261 74.2127 23.5554 
480 C 1 67.7912 74.1403 31.0083 
490 C 1 67.8696 73.7025 28.6112 
491 C 1 67.9665 73.2262 29.9406 
492 C 1 68.4327 71.9104 30.2057 
501 C 1 67.7699 74.6515 25.9482 
502 C 1 67.9816 73.2724 26.2163 
503 C 1 68.1056 72.8017 27.5446 
504 C 1 68.6531 71.5178 27.809 
512 C 1 68.1213 72.8497 23.8249 
513 C 1 68.2743 72.3873 25.1519 
4840 H 2 74.6934 72.2132 23.7727 
4841 H 2 73.276 71.776 23.4699 
539 C 1 71.1746 68.8327 23.5441 
505 C 1 68.8871 71.096 29.1394 
506 C 1 69.738 69.9896 29.4032 
507 C 1 70.0666 69.6426 30.7357 
508 C 1 71.1718 68.7905 31.0011 
514 C 1 68.8979 71.1388 25.415 
515 C 1 69.1576 70.7323 26.7443 
516 C 1 70.0737 69.6792 27.006 
517 C 1 70.4255 69.3565 28.3381 
527 C 1 69.4458 70.3822 24.3517 
528 C 1 70.4219 69.3841 24.6101 
529 C 1 70.7949 69.0843 25.9414 
4848 O 3 73.6762 72.7104 26.8157 
4849 H 2 72.9034 73.2396 27.0133 
4839 O 3 73.779 72.4366 23.9462 
4850 H 2 73.7171 72.693 25.8596 
4916 H 2 74.957 71.4064 27.3206 
4837 H 2 73.4493 73.2057 29.0436 
4836 O 3 72.893 73.9718 29.1846 
4838 H 2 73.506 74.7036 29.2556 
4975 H 2 73.5631 74.1787 24.1714 
5781 O 3 76.9945 72.9856 24.1156 
5783 H 2 76.7703 73.524 24.8746 
5515 H 2 78.8741 73.685 24.4586 
5193 O 3 76.278 74.3142 26.4639 
5195 H 2 75.9009 73.7162 27.1092 
5514 O 3 79.285 74.5261 24.6584 
4915 H 2 76.0075 70.3343 27.518 
4914 O 3 75.4048 70.9012 27.9992 
4952 H 2 75.6961 70.9687 30.8995 
548 C 1 79.4894 69.2425 30.2233 
560 C 1 79.8452 69.5219 27.8249 
561 C 1 80.1885 69.8594 29.1573 
562 C 1 81.0645 70.9426 29.4345 
569 C 1 79.1112 68.9308 25.1431 
570 C 1 80.1798 69.8238 25.4262 
571 C 1 80.5027 70.1827 26.759 
579 C 1 80.7932 70.5271 24.3613 
5473 H 2 77.1265 73.0751 30.4773 
5516 H 2 79.8824 74.3356 25.3816 
5472 O 3 77.3363 73.619 29.7181 
5474 H 2 77.7253 74.4106 30.09 
4934 H 2 78.5688 74.3072 28.3182 
4933 H 2 77.9763 74.699 26.9813 
4932 O 3 78.7301 74.8552 27.5501 
585 C 1 81.8859 72.5735 23.5874 
563 C 1 81.315 71.3555 30.7651 
564 C 1 81.8894 72.6251 31.0393 
572 C 1 81.3069 71.3197 27.0404 
573 C 1 81.5313 71.75 28.3702 
574 C 1 82.024 73.0532 28.6473 
575 C 1 82.1359 73.5255 29.976 
576 C 1 82.2856 74.9113 30.2485 
580 C 1 81.5241 71.7116 24.6479 
581 C 1 81.7212 72.1558 25.9773 
582 C 1 82.1297 73.4872 26.2577 
583 C 1 82.213 73.9674 27.5851 
586 C 1 82.2092 73.9273 23.8709 
587 C 1 82.2602 74.4121 25.1972 
489 C 1 67.7445 75.0925 28.3442 
500 C 1 67.7653 75.1414 24.6206 
464 C 1 68.4776 78.2365 30.2153 
476 C 1 68.2945 77.8361 27.8165 
477 C 1 68.1219 77.3789 29.1457 
478 C 1 67.8049 76.0198 29.4128 
479 C 1 67.7548 75.5355 30.7423 
485 C 1 68.7259 78.6943 25.1479 
486 C 1 68.1453 77.4256 25.4179 
487 C 1 67.998 76.9572 26.7465 
488 C 1 67.7682 75.5809 27.0157 
499 C 1 67.9084 76.5287 24.3487 
4874 H 2 71.3806 75.1314 30.9022 
5704 H 2 73.4192 78.2741 31.1727 
4509 O 3 71.0249 76.0652 23.9249 
4510 H 2 71.8171 75.5523 24.0851 
4511 H 2 71.3019 76.9749 24.0338 
5159 H 2 74.7274 78.2835 24.2639 
5158 H 2 73.4302 78.8478 24.8032 
5157 O 3 73.9923 78.8497 24.0284 
4976 H 2 74.1096 75.5684 23.9221 
5682 O 3 71.7756 77.2009 28.9592 
5683 H 2 70.8463 76.9717 28.9565 
5479 H 2 74.431 77.3223 27.2422 
4974 O 3 73.479 75.0879 24.4586 
5254 H 2 72.7951 79.2192 27.3199 
5253 O 3 73.112 78.5058 26.7659 
5255 H 2 72.4645 77.8096 26.8774 
483 C 1 69.8841 80.1827 23.5512 
451 C 1 70.8892 81.0212 30.7556 
452 C 1 69.8193 80.1254 31.0193 
460 C 1 70.9252 81.0496 27.0261 
461 C 1 70.5301 80.7619 28.3551 
462 C 1 69.5166 79.8026 28.6198 
463 C 1 69.2105 79.424 29.9496 
472 C 1 70.5762 80.794 24.6253 
473 C 1 70.1939 80.483 25.9535 
474 C 1 69.2398 79.4642 26.2198 
475 C 1 68.9532 79.0663 27.5489 
484 C 1 68.9925 79.1089 23.8193 
5684 H 2 72.0057 77.2597 29.8864 
4909 H 2 77.0806 77.3326 24.443 
4908 O 3 76.6624 77.1137 23.6102 
5480 H 2 75.8706 77.1323 27.6702 
5478 O 3 75.1592 76.703 27.195 
5194 H 2 75.7311 75.0981 26.5146 
5096 H 2 78.8788 76.4105 26.0918 
5095 H 2 79.1722 77.611 25.2174 
5094 O 3 78.5117 77.2474 25.8071 
5109 O 3 77.6311 77.6986 28.7481 
5110 H 2 77.8699 77.9889 27.8678 
427 C 1 81.1782 78.8658 23.6212 
400 C 1 81.1436 78.9041 31.0505 
406 C 1 80.8928 79.2774 28.6606 
407 C 1 80.5927 79.6582 29.988 
408 C 1 79.6005 80.6388 30.2519 
418 C 1 80.6195 79.6334 26.2721 
419 C 1 80.2968 79.9961 27.5986 
420 C 1 79.2479 80.9156 27.8612 
421 C 1 78.8431 81.1835 29.1884 
428 C 1 80.3357 79.9764 23.8844 
429 C 1 79.9871 80.3182 25.2095 
430 C 1 78.8864 81.1746 25.4708 
5111 H 2 78.1604 76.9145 28.894 
5633 H 2 75.9753 78.1652 30.6297 
5631 O 3 75.2214 78.43 31.1565 
4614 O 3 78.1187 76.0577 30.9148 
405 C 1 81.6042 78.0777 28.3946 
584 C 1 82.2765 75.3596 27.8592 
588 C 1 82.2348 75.8048 25.4723 
415 C 1 82.071 76.7246 24.4129 
416 C 1 81.6149 78.0412 24.6816 
397 C 1 82.2395 75.8445 29.1866 
398 C 1 81.9468 77.2081 29.4561 
399 C 1 81.7798 77.663 30.784 
403 C 1 82.167 76.2873 26.7983 
404 C 1 81.7915 77.6296 27.0678 
417 C 1 81.3977 78.4766 26.0071 
458 C 1 72.6099 81.8947 25.436 
457 C 1 73.9658 82.2276 25.176 
448 C 1 73.025 82.0237 27.835 
450 C 1 71.2974 81.2831 29.4257 
456 C 1 74.458 82.2863 23.8507 
459 C 1 72.1513 81.7169 26.7636 
446 C 1 74.8874 82.2993 26.2478 
447 C 1 74.3985 82.2719 27.5748 
435 C 1 74.8411 82.2909 29.9722 
471 C 1 71.7603 81.534 24.3621 
436 C 1 73.4551 82.1277 30.2328 
449 C 1 72.5615 81.8746 29.1637 
443 C 1 78.0771 81.6289 24.404 
433 C 1 76.7075 82.0873 28.3838 
422 C 1 77.5948 81.8066 29.4499 
431 C 1 78.4621 81.4153 26.7967 
424 C 1 75.7709 82.2493 31.0391 
455 C 1 75.854 82.2649 23.5917 
432 C 1 77.178 81.9608 27.0569 
434 C 1 75.3263 82.2862 28.6437 
444 C 1 76.7615 82.0936 24.6633 
423 C 1 77.137 81.9641 30.7781 
445 C 1 76.2787 82.1883 25.9887 
509 C 1 71.5774 68.5451 32.3357 
510 C 1 72.8691 68.0175 32.6033 
521 C 1 73.7817 67.8075 31.5386 
726 C 1 72.001 68.3364 37.4035 
727 C 1 72.4415 68.1603 38.7381 
728 C 1 73.7915 67.8099 39.0067 
736 C 1 72.4295 68.1635 35.0033 
737 C 1 72.8795 68.0149 36.338 
738 C 1 74.2487 67.7492 36.607 
739 C 1 74.7222 67.7196 37.9414 
749 C 1 73.3266 67.8968 33.9382 
750 C 1 74.7095 67.7159 34.2076 
522 C 1 75.1726 67.7095 31.808 
523 C 1 75.6449 67.7396 33.1428 
524 C 1 77.015 67.997 33.4138 
537 C 1 77.896 68.3087 32.3486 
740 C 1 76.1139 67.8066 38.2109 
751 C 1 75.1836 67.7163 35.5421 
752 C 1 76.5672 67.889 35.8122 
753 C 1 77.0268 68.0096 37.1461 
754 C 1 78.3218 68.5258 37.4162 
763 C 1 77.4661 68.1468 34.7476 
764 C 1 78.7265 68.7423 35.0188 
468 C 1 67.7457 74.5856 33.4067 
481 C 1 67.8605 73.6613 32.3388 
482 C 1 68.2423 72.3187 32.6038 
493 C 1 68.6409 71.4755 31.5368 
697 C 1 67.7381 74.5597 37.1387 
698 C 1 67.9514 73.1803 37.4029 
699 C 1 68.0801 72.7223 38.7368 
700 C 1 68.6294 71.4394 39.0019 
707 C 1 67.7857 74.1066 34.7385 
708 C 1 68.0828 72.7428 35.003 
709 C 1 68.2385 72.2915 36.3363 
721 C 1 68.4251 71.8747 33.936 
494 C 1 69.4193 70.3166 31.8015 
495 C 1 69.7271 69.9512 33.1347 
496 C 1 70.7778 69.0321 33.4008 
710 C 1 68.8652 71.0443 36.6013 
711 C 1 69.1288 70.6491 37.9356 
712 C 1 70.0551 69.6051 38.2019 
722 C 1 69.1284 70.6688 34.2009 
723 C 1 69.4156 70.289 35.5349 
724 C 1 70.407 69.3067 35.8012 
725 C 1 70.7846 69.0197 37.1358 
735 C 1 71.1726 68.7692 34.7354 
4717 H 2 74.0546 72.1114 35.7818 
4716 O 3 74.397 72.1305 34.8881 
4718 H 2 73.64 71.9318 34.3369 
5367 O 3 71.9336 74.7269 34.6855 
5369 H 2 71.6604 74.7876 33.7702 
5368 H 2 72.1147 73.7968 34.8208 
5184 O 3 70.6822 74.707 38.7111 
4620 O 3 73.4472 72.4371 32.1594 
4621 H 2 73.9179 73.2701 32.1308 
4816 H 2 73.1503 71.6932 38.1226 
4544 H 2 71.2253 73.1125 38.8036 
4817 H 2 73.8828 70.3832 37.9251 
4815 O 3 73.7288 71.2338 37.514 
4622 H 2 72.7696 72.5212 31.4885 
4648 H 2 76.6725 73.8028 37.3355 