ITEM: TIMESTEP
2334522
ITEM: NUMBER OF ATOMS
5723
ITEM: BOX BOUNDS pp pp pp
0.0000000000000000e+00 1.5000000000000000e+02
0.0000000000000000e+00 1.5000000000000000e+02
0.0000000000000000e+00 2.5000000000000000e+02
ITEM: ATOMS id element type x y z 
126 C 1 71.647 68.574 5.895 
127 C 1 72.066 68.372 7.235 
128 C 1 73.387 67.934 7.503 
138 C 1 72.066 68.372 3.484 
139 C 1 72.497 68.198 4.824 
140 C 1 73.843 67.845 5.092 
141 C 1 74.304 67.785 6.431 
148 C 1 72.497 68.198 1.072 
149 C 1 72.938 68.051 2.412 
150 C 1 74.304 67.785 2.68 
151 C 1 74.768 67.756 4.02 
161 C 1 73.387 67.934 0 
162 C 1 74.768 67.756 0.268 
4429 C 1 71.647 68.574 7.258 
4430 C 1 72.938 68.051 7.526 
4438 C 1 71.647 68.574 3.506 
4439 C 1 72.066 68.372 4.846 
4440 C 1 73.387 67.934 5.114 
4441 C 1 73.843 67.845 6.454 
4450 C 1 72.066 68.372 1.094 
4451 C 1 72.497 68.198 2.434 
4452 C 1 73.843 67.845 2.702 
4453 C 1 74.304 67.785 4.042 
4461 C 1 72.938 68.051 0.022 
4462 C 1 74.304 67.785 0.29 
4463 C 1 74.768 67.756 1.63 
142 C 1 75.696 67.785 6.699 
152 C 1 76.157 67.845 4.288 
153 C 1 76.613 67.934 5.628 
154 C 1 77.934 68.372 5.895 
155 C 1 78.353 68.574 7.235 
163 C 1 75.232 67.756 1.608 
164 C 1 76.613 67.934 1.876 
165 C 1 77.062 68.051 3.216 
166 C 1 78.353 68.574 3.484 
175 C 1 77.503 68.198 0.804 
4442 C 1 75.232 67.756 6.722 
4454 C 1 75.696 67.785 4.31 
4455 C 1 76.157 67.845 5.65 
4456 C 1 77.503 68.198 5.918 
4457 C 1 77.934 68.372 7.258 
4464 C 1 76.157 67.845 1.898 
4465 C 1 76.613 67.934 3.238 
4466 C 1 77.934 68.372 3.506 
4467 C 1 78.353 68.574 4.846 
4477 C 1 77.062 68.051 0.826 
4478 C 1 78.353 68.574 1.094 
98 C 1 67.886 73.614 5.895 
99 C 1 67.989 73.161 7.235 
100 C 1 68.47 71.855 7.503 
109 C 1 67.767 74.536 3.216 
110 C 1 67.989 73.161 3.484 
111 C 1 68.121 72.716 4.824 
112 C 1 68.685 71.443 5.092 
119 C 1 67.811 74.073 0.804 
120 C 1 68.121 72.716 1.072 
121 C 1 68.282 72.28 2.412 
133 C 1 68.47 71.855 0 
4400 C 1 67.811 74.073 5.918 
4401 C 1 67.886 73.614 7.258 
4402 C 1 68.282 72.28 7.526 
4410 C 1 67.886 73.614 3.506 
4411 C 1 67.989 73.161 4.846 
4412 C 1 68.47 71.855 5.114 
4413 C 1 68.685 71.443 6.454 
4421 C 1 67.767 74.536 0.826 
4422 C 1 67.989 73.161 1.094 
4423 C 1 68.121 72.716 2.434 
4424 C 1 68.685 71.443 2.702 
4433 C 1 68.282 72.28 0.022 
113 C 1 68.925 71.046 6.431 
114 C 1 69.793 69.958 6.699 
122 C 1 68.925 71.046 2.68 
123 C 1 69.191 70.665 4.02 
124 C 1 70.127 69.634 4.288 
125 C 1 70.481 69.333 5.628 
134 C 1 69.191 70.665 0.268 
135 C 1 69.481 70.302 1.608 
136 C 1 70.481 69.333 1.876 
137 C 1 70.853 69.055 3.216 
147 C 1 71.243 68.802 0.804 
4414 C 1 69.481 70.302 6.722 
4425 C 1 68.925 71.046 4.042 
4426 C 1 69.793 69.958 4.31 
4427 C 1 70.127 69.634 5.65 
4428 C 1 71.243 68.802 5.918 
4434 C 1 68.925 71.046 0.29 
4435 C 1 69.191 70.665 1.63 
4436 C 1 70.127 69.634 1.898 
4437 C 1 70.481 69.333 3.238 
4449 C 1 70.853 69.055 0.826 
5500 H 2 72.4943 72.9211 4.04408 
4817 H 2 74.4509 71.29 4.5069 
5663 H 2 73.076 72.083 6.2299 
4816 H 2 74.0409 71.3156 3.04981 
4815 O 3 74.0281 71.8421 3.84912 
5499 O 3 71.7148 73.3942 4.3353 
5501 H 2 71.4015 73.8459 3.55172 
4919 H 2 70.9484 74.5758 1.50382 
4917 O 3 71.3388 73.7117 1.63472 
4918 H 2 71.3146 73.3038 0.769118 
5679 O 3 73.7656 71.0635 1.16846 
5681 H 2 72.9765 70.6059 1.45867 
5639 H 2 74.8753 74.8518 1.05972 
5636 H 2 71.5459 74.4371 5.97721 
5634 O 3 70.9546 74.8433 6.61096 
5635 H 2 70.8908 74.2059 7.32228 
5661 O 3 73.0799 72.0916 7.18705 
5662 H 2 73.4637 72.9375 7.41791 
5680 H 2 73.4904 71.5455 0.38862 
5676 O 3 76.6709 71.2796 1.19398 
5678 H 2 75.7174 71.355 1.15556 
5034 O 3 77.0299 72.0929 3.80694 
5677 H 2 76.878 71.3273 2.12729 
156 C 1 79.519 69.333 7.503 
167 C 1 78.757 68.802 4.824 
168 C 1 79.873 69.634 5.092 
169 C 1 80.207 69.958 6.431 
170 C 1 81.075 71.046 6.699 
176 C 1 78.757 68.802 1.072 
177 C 1 79.147 69.055 2.412 
178 C 1 80.207 69.958 2.68 
179 C 1 80.519 70.302 4.02 
185 C 1 79.519 69.333 0 
186 C 1 80.519 70.302 0.268 
187 C 1 80.809 70.665 1.608 
4458 C 1 79.147 69.055 7.526 
4468 C 1 79.519 69.333 5.114 
4469 C 1 79.873 69.634 6.454 
4470 C 1 80.809 70.665 6.722 
4479 C 1 78.757 68.802 2.434 
4480 C 1 79.873 69.634 2.702 
4481 C 1 80.207 69.958 4.042 
4482 C 1 81.075 71.046 4.31 
4489 C 1 79.147 69.055 0.022 
4490 C 1 80.207 69.958 0.29 
4491 C 1 80.519 70.302 1.63 
5450 H 2 77.2868 72.6243 6.94402 
5036 H 2 76.8509 71.804 4.70176 
5035 H 2 76.2837 72.6479 3.58015 
5448 O 3 76.5245 72.2184 6.53111 
5449 H 2 75.9246 72.042 7.25578 
4782 O 3 78.7927 74.3341 5.64698 
4784 H 2 78.8566 73.5405 5.11556 
5229 O 3 78.0475 74.5799 1.26477 
5231 H 2 78.201 73.6554 1.45981 
4614 O 3 75.7644 74.7775 3.65194 
5638 H 2 76.1356 74.4301 0.334676 
180 C 1 81.315 71.443 4.288 
181 C 1 81.53 71.855 5.628 
182 C 1 82.011 73.161 5.895 
183 C 1 82.114 73.614 7.235 
188 C 1 81.53 71.855 1.876 
189 C 1 81.718 72.28 3.216 
190 C 1 82.114 73.614 3.484 
191 C 1 82.189 74.073 4.824 
193 C 1 81.879 72.716 0.804 
194 C 1 82.189 74.073 1.072 
195 C 1 82.233 74.536 2.412 
4483 C 1 81.315 71.443 5.65 
4484 C 1 81.879 72.716 5.918 
4485 C 1 82.011 73.161 7.258 
4486 C 1 82.233 74.536 7.526 
4492 C 1 81.315 71.443 1.898 
4493 C 1 81.53 71.855 3.238 
4494 C 1 82.011 73.161 3.506 
4495 C 1 82.114 73.614 4.846 
4501 C 1 81.718 72.28 0.826 
4502 C 1 82.114 73.614 1.094 
4503 C 1 82.189 74.073 2.434 
4507 C 1 82.233 74.536 0.022 
72 C 1 68.47 78.145 7.503 
84 C 1 68.282 77.72 5.092 
85 C 1 68.121 77.284 6.431 
86 C 1 67.811 75.927 6.699 
93 C 1 68.685 78.557 2.412 
94 C 1 68.121 77.284 2.68 
95 C 1 67.989 76.839 4.02 
96 C 1 67.767 75.464 4.288 
97 C 1 67.752 75 5.628 
105 C 1 68.47 78.145 0 
106 C 1 67.989 76.839 0.268 
107 C 1 67.886 76.386 1.608 
108 C 1 67.752 75 1.876 
4374 C 1 68.685 78.557 7.526 
4384 C 1 68.47 78.145 5.114 
4385 C 1 68.282 77.72 6.454 
4386 C 1 67.886 76.386 6.722 
4396 C 1 68.282 77.72 2.702 
4397 C 1 68.121 77.284 4.042 
4398 C 1 67.811 75.927 4.31 
4399 C 1 67.767 75.464 5.65 
4405 C 1 68.685 78.557 0.022 
4406 C 1 68.121 77.284 0.29 
4407 C 1 67.989 76.839 1.63 
4408 C 1 67.767 75.464 1.898 
4409 C 1 67.752 75 3.238 
4543 H 2 72.7843 76.1088 1.87835 
4542 O 3 73.6539 76.274 2.24274 
4544 H 2 73.4963 76.8584 2.98423 
5271 O 3 71.7002 76.9229 4.92028 
5272 H 2 71.6869 77.3442 5.77966 
5273 H 2 71.5901 75.9908 5.10823 
4711 H 2 71.6913 76.4177 7.66606 
4710 O 3 71.8389 77.3561 7.7833 
58 C 1 71.243 81.198 6.699 
68 C 1 70.853 80.945 4.288 
69 C 1 70.481 80.667 5.628 
70 C 1 69.481 79.698 5.895 
71 C 1 69.191 79.335 7.235 
80 C 1 70.481 80.667 1.876 
81 C 1 70.127 80.366 3.216 
82 C 1 69.191 79.335 3.484 
83 C 1 68.925 78.954 4.824 
91 C 1 69.793 80.042 0.804 
92 C 1 68.925 78.954 1.072 
4370 C 1 71.243 81.198 4.31 
4371 C 1 70.853 80.945 5.65 
4372 C 1 69.793 80.042 5.918 
4373 C 1 69.481 79.698 7.258 
4380 C 1 70.853 80.945 1.898 
4381 C 1 70.481 80.667 3.238 
4382 C 1 69.481 79.698 3.506 
4383 C 1 69.191 79.335 4.846 
4393 C 1 70.127 80.366 0.826 
4394 C 1 69.191 79.335 1.094 
4395 C 1 68.925 78.954 2.434 
4600 H 2 74.3237 79.6583 6.32911 
4591 H 2 74.9303 75.225 5.29022 
4590 O 3 74.4735 75.7694 5.93149 
5703 O 3 74.9071 79.1711 2.89517 
4601 H 2 74.3121 78.1445 6.33956 
4599 O 3 74.466 78.9042 6.9012 
4615 H 2 74.8749 75.0422 3.41747 
5704 H 2 74.0534 79.6017 2.84931 
4512 O 3 71.2037 76.5079 0.831675 
4592 H 2 74.56 75.292 6.75661 
4514 H 2 70.9585 77.2162 1.42701 
4783 H 2 78.7783 75.0487 5.01035 
4808 H 2 79.7143 76.7259 3.51802 
5230 H 2 78.2906 75.0384 2.06905 
4807 H 2 78.2153 76.657 3.31821 
4616 H 2 76.3086 75.5286 3.41509 
5642 H 2 78.3589 76.9288 7.26978 
5640 O 3 78.9131 76.2387 7.63421 
14 C 1 80.809 79.335 5.895 
15 C 1 80.519 79.698 7.235 
16 C 1 79.519 80.667 7.503 
26 C 1 80.519 79.698 3.484 
27 C 1 80.207 80.042 4.824 
28 C 1 79.147 80.945 5.092 
29 C 1 78.757 81.198 6.431 
35 C 1 81.075 78.954 0.804 
36 C 1 80.207 80.042 1.072 
37 C 1 79.873 80.366 2.412 
38 C 1 78.757 81.198 2.68 
49 C 1 79.519 80.667 0 
4320 C 1 81.075 78.954 5.918 
4321 C 1 80.809 79.335 7.258 
4322 C 1 79.873 80.366 7.526 
4326 C 1 80.809 79.335 3.506 
4327 C 1 80.519 79.698 4.846 
4328 C 1 79.519 80.667 5.114 
4329 C 1 79.147 80.945 6.454 
4338 C 1 80.519 79.698 1.094 
4339 C 1 80.207 80.042 2.434 
4340 C 1 79.147 80.945 2.702 
4341 C 1 78.757 81.198 4.042 
4349 C 1 79.873 80.366 0.022 
4350 C 1 78.757 81.198 0.29 
5641 H 2 79.0036 75.6034 6.92392 
5133 O 3 76.6331 77.3752 4.46832 
5134 H 2 76.1768 78.1329 4.10251 
5135 H 2 75.9445 76.8608 4.88968 
4806 O 3 78.9985 76.1088 3.36637 
5705 H 2 75.2935 79.3116 2.03078 
4964 H 2 75.5945 77.7409 0.830425 
4962 O 3 76.1498 78.4226 0.45199 
5637 O 3 75.4191 75.064 0.301109 
5461 H 2 78.4981 76.1942 0.232189 
4963 H 2 76.915 77.9523 0.120811 
5 C 1 82.189 75.927 6.431 
6 C 1 81.879 77.284 6.699 
11 C 1 82.114 76.386 4.02 
12 C 1 81.718 77.72 4.288 
13 C 1 81.53 78.145 5.628 
21 C 1 82.248 75 0 
22 C 1 82.114 76.386 0.268 
23 C 1 82.011 76.839 1.608 
24 C 1 81.53 78.145 1.876 
25 C 1 81.315 78.557 3.216 
184 C 1 82.248 75 7.503 
192 C 1 82.233 75.464 5.092 
196 C 1 82.189 75.927 2.68 
4313 C 1 82.233 75.464 6.454 
4314 C 1 82.011 76.839 6.722 
4317 C 1 82.189 75.927 4.042 
4318 C 1 81.879 77.284 4.31 
4319 C 1 81.718 77.72 5.65 
4323 C 1 82.114 76.386 1.63 
4324 C 1 81.718 77.72 1.898 
4325 C 1 81.53 78.145 3.238 
4337 C 1 81.315 78.557 0.826 
4496 C 1 82.248 75 5.114 
4504 C 1 82.233 75.464 2.702 
4508 C 1 82.189 75.927 0.29 
43 C 1 74.768 82.244 7.235 
44 C 1 73.387 82.066 7.503 
54 C 1 74.768 82.244 3.484 
55 C 1 74.304 82.215 4.824 
56 C 1 72.938 81.949 5.092 
57 C 1 72.497 81.802 6.431 
64 C 1 74.304 82.215 1.072 
65 C 1 73.843 82.155 2.412 
66 C 1 72.497 81.802 2.68 
67 C 1 72.066 81.628 4.02 
77 C 1 73.387 82.066 0 
78 C 1 72.066 81.628 0.268 
79 C 1 71.647 81.426 1.608 
4346 C 1 73.843 82.155 7.526 
4355 C 1 74.768 82.244 4.846 
4356 C 1 73.387 82.066 5.114 
4357 C 1 72.938 81.949 6.454 
4358 C 1 71.647 81.426 6.722 
4366 C 1 74.768 82.244 1.094 
4367 C 1 74.304 82.215 2.434 
4368 C 1 72.938 81.949 2.702 
4369 C 1 72.497 81.802 4.042 
4377 C 1 73.843 82.155 0.022 
4378 C 1 72.497 81.802 0.29 
4379 C 1 72.066 81.628 1.63 
30 C 1 77.503 81.802 6.699 
39 C 1 78.353 81.426 4.02 
40 C 1 77.062 81.949 4.288 
41 C 1 76.613 82.066 5.628 
42 C 1 75.232 82.244 5.895 
50 C 1 78.353 81.426 0.268 
51 C 1 77.934 81.628 1.608 
52 C 1 76.613 82.066 1.876 
53 C 1 76.157 82.155 3.216 
63 C 1 75.696 82.215 0.804 
4330 C 1 77.934 81.628 6.722 
4342 C 1 77.503 81.802 4.31 
4343 C 1 77.062 81.949 5.65 
4344 C 1 75.696 82.215 5.918 
4345 C 1 75.232 82.244 7.258 
4351 C 1 78.353 81.426 1.63 
4352 C 1 77.062 81.949 1.898 
4353 C 1 76.613 82.066 3.238 
4354 C 1 75.232 82.244 3.506 
4365 C 1 76.157 82.155 0.826 
117 C 1 71.647 68.574 9.647 
118 C 1 72.938 68.051 9.915 
129 C 1 73.843 67.845 8.843 
334 C 1 72.066 68.372 14.739 
344 C 1 72.497 68.198 12.327 
345 C 1 72.938 68.051 13.667 
346 C 1 74.304 67.785 13.935 
347 C 1 74.768 67.756 15.275 
357 C 1 73.387 67.934 11.255 
358 C 1 74.768 67.756 11.523 
130 C 1 75.232 67.756 9.111 
131 C 1 75.696 67.785 10.451 
132 C 1 77.062 68.051 10.719 
143 C 1 76.157 67.845 8.039 
144 C 1 77.503 68.198 8.307 
145 C 1 77.934 68.372 9.647 
348 C 1 76.157 67.845 15.543 
359 C 1 75.232 67.756 12.863 
360 C 1 76.613 67.934 13.131 
361 C 1 77.062 68.051 14.471 
362 C 1 78.353 68.574 14.739 
371 C 1 77.503 68.198 12.059 
4443 C 1 75.696 67.785 8.062 
4444 C 1 77.062 68.051 8.33 
76 C 1 67.767 74.536 10.719 
88 C 1 67.811 74.073 8.307 
89 C 1 67.886 73.614 9.647 
90 C 1 68.282 72.28 9.915 
101 C 1 68.685 71.443 8.843 
305 C 1 67.767 74.536 14.471 
306 C 1 67.989 73.161 14.739 
315 C 1 67.811 74.073 12.059 
316 C 1 68.121 72.716 12.327 
317 C 1 68.282 72.28 13.667 
329 C 1 68.47 71.855 11.255 
4388 C 1 67.767 74.536 8.33 
102 C 1 69.481 70.302 9.111 
103 C 1 69.793 69.958 10.451 
104 C 1 70.853 69.055 10.719 
115 C 1 70.127 69.634 8.039 
116 C 1 71.243 68.802 8.307 
318 C 1 68.925 71.046 13.935 
319 C 1 69.191 70.665 15.275 
320 C 1 70.127 69.634 15.543 
330 C 1 69.191 70.665 11.523 
331 C 1 69.481 70.302 12.863 
332 C 1 70.481 69.333 13.131 
333 C 1 70.853 69.055 14.471 
343 C 1 71.243 68.802 12.059 
4415 C 1 69.793 69.958 8.062 
4416 C 1 70.853 69.055 8.33 
5470 H 2 73.2361 74.4245 8.90277 
5469 O 3 74.0261 74.4437 8.36267 
5617 H 2 74.1737 71.3289 8.54072 
5573 H 2 72.1915 72.8904 14.228 
4901 H 2 73.796 72.6592 11.9577 
4900 H 2 73.1565 73.8874 12.5697 
4899 O 3 72.979 72.9741 12.3445 
5571 O 3 71.7521 72.9598 15.0756 
5471 H 2 74.6831 74.8692 8.91359 
5618 H 2 74.9391 71.0352 9.81341 
4673 H 2 72.001 73.9828 10.5474 
4671 O 3 71.7783 74.6688 9.918 
5572 H 2 71.1262 72.2356 15.0814 
4626 O 3 75.3851 72.1514 11.4836 
4627 H 2 75.7294 73.0255 11.3001 
4628 H 2 75.6801 71.9593 12.3737 
5595 O 3 75.6435 72.9767 14.3981 
5597 H 2 75.3523 73.8722 14.2264 
4529 H 2 78.0057 71.2472 9.8 
5616 O 3 75.0228 71.0234 8.85995 
4528 H 2 76.9715 72.109 10.4926 
4527 O 3 77.79 72.1584 9.99873 
5596 H 2 76.5926 73.0482 14.4993 
4866 O 3 78.6204 74.6894 10.6418 
146 C 1 79.147 69.055 9.915 
157 C 1 79.873 69.634 8.843 
158 C 1 80.809 70.665 9.111 
159 C 1 81.075 71.046 10.451 
372 C 1 78.757 68.802 12.327 
373 C 1 79.147 69.055 13.667 
374 C 1 80.207 69.958 13.935 
375 C 1 80.519 70.302 15.275 
381 C 1 79.519 69.333 11.255 
382 C 1 80.519 70.302 11.523 
383 C 1 80.809 70.665 12.863 
4471 C 1 81.075 71.046 8.062 
4868 H 2 78.6053 73.7877 10.321 
5360 H 2 79.2837 74.1518 14.5461 
5358 O 3 78.493 73.6287 14.6778 
5359 H 2 78.4492 73.4942 15.6245 
160 C 1 81.718 72.28 10.719 
171 C 1 81.315 71.443 8.039 
172 C 1 81.879 72.716 8.307 
173 C 1 82.011 73.161 9.647 
174 C 1 82.233 74.536 9.915 
376 C 1 81.315 71.443 15.543 
384 C 1 81.53 71.855 13.131 
385 C 1 81.718 72.28 14.471 
386 C 1 82.114 73.614 14.739 
389 C 1 81.879 72.716 12.059 
390 C 1 82.189 74.073 12.327 
391 C 1 82.233 74.536 13.667 
4472 C 1 81.718 72.28 8.33 
62 C 1 68.685 78.557 9.915 
73 C 1 68.282 77.72 8.843 
74 C 1 67.886 76.386 9.111 
75 C 1 67.811 75.927 10.451 
87 C 1 67.767 75.464 8.039 
289 C 1 68.685 78.557 13.667 
290 C 1 68.121 77.284 13.935 
291 C 1 67.989 76.839 15.275 
292 C 1 67.767 75.464 15.543 
301 C 1 68.47 78.145 11.255 
302 C 1 67.989 76.839 11.523 
303 C 1 67.886 76.386 12.863 
304 C 1 67.752 75 13.131 
4387 C 1 67.811 75.927 8.062 
4712 H 2 71.0125 77.687 8.13504 
5275 H 2 73.4154 76.2413 12.983 
5274 O 3 74.0752 75.5671 12.8205 
4672 H 2 72.1113 75.4744 10.3133 
4846 H 2 72.3134 77.7075 14.5102 
4845 O 3 72.2789 77.1592 13.7263 
5535 O 3 72.7499 77.4008 10.2236 
47 C 1 71.243 81.198 10.451 
48 C 1 70.127 80.366 10.719 
59 C 1 70.853 80.945 8.039 
60 C 1 69.793 80.042 8.307 
61 C 1 69.481 79.698 9.647 
264 C 1 70.853 80.945 15.543 
276 C 1 70.481 80.667 13.131 
277 C 1 70.127 80.366 14.471 
278 C 1 69.191 79.335 14.739 
287 C 1 69.793 80.042 12.059 
288 C 1 68.925 78.954 12.327 
4359 C 1 71.243 81.198 8.062 
4360 C 1 70.127 80.366 8.33 
5276 H 2 74.8199 75.8241 13.3643 
5536 H 2 73.576 77.8817 10.2747 
5537 H 2 72.4523 77.5302 9.32305 
4847 H 2 71.5977 77.5575 13.1846 
4754 H 2 74.9666 78.7709 8.73633 
5380 H 2 74.2192 78.2624 12.6399 
4622 H 2 76.0664 75.6478 11.26 
4867 H 2 79.0191 75.1906 9.9304 
4621 H 2 76.913 75.2078 10.0846 
4620 O 3 76.0264 75.4829 10.3179 
4752 O 3 75.2892 78.8516 9.63393 
4753 H 2 76.2377 78.7477 9.5583 
4697 H 2 77.8327 77.0512 10.4787 
4695 O 3 78.1097 77.7539 9.89077 
4696 H 2 78.3808 77.3043 9.09042 
5372 H 2 76.7308 76.396 14.1445 
5371 H 2 77.3923 75.0357 14.2064 
5370 O 3 76.7007 75.5214 13.7569 
5381 H 2 75.5119 78.6478 11.9526 
5379 O 3 75.0696 78.6711 12.8012 
4515 O 3 77.0396 77.8693 15.0768 
4516 H 2 76.7023 78.5623 14.5091 
8 C 1 81.075 78.954 8.307 
9 C 1 80.809 79.335 9.647 
10 C 1 79.873 80.366 9.915 
17 C 1 79.147 80.945 8.843 
222 C 1 80.519 79.698 14.739 
231 C 1 81.075 78.954 12.059 
232 C 1 80.207 80.042 12.327 
233 C 1 79.873 80.366 13.667 
234 C 1 78.757 81.198 13.935 
245 C 1 79.519 80.667 11.255 
221 C 1 81.315 78.557 14.471 
4316 C 1 81.315 78.557 8.33 
4315 C 1 81.879 77.284 8.062 
392 C 1 82.189 75.927 13.935 
1 C 1 82.233 75.464 8.843 
2 C 1 82.011 76.839 9.111 
3 C 1 81.879 77.284 10.451 
4 C 1 81.315 78.557 10.719 
7 C 1 81.718 77.72 8.039 
207 C 1 82.114 76.386 15.275 
208 C 1 81.718 77.72 15.543 
217 C 1 82.248 75 11.255 
218 C 1 82.114 76.386 11.523 
219 C 1 82.011 76.839 12.863 
220 C 1 81.53 78.145 13.131 
274 C 1 72.066 81.628 11.523 
261 C 1 73.843 82.155 13.667 
273 C 1 73.387 82.066 11.255 
275 C 1 71.647 81.426 12.863 
45 C 1 72.938 81.949 8.843 
34 C 1 73.843 82.155 9.915 
250 C 1 74.768 82.244 14.739 
263 C 1 72.066 81.628 15.275 
46 C 1 71.647 81.426 9.111 
262 C 1 72.497 81.802 13.935 
260 C 1 74.304 82.215 12.327 
247 C 1 77.934 81.628 12.863 
236 C 1 77.062 81.949 15.543 
248 C 1 76.613 82.066 13.131 
259 C 1 75.696 82.215 12.059 
18 C 1 77.934 81.628 9.111 
20 C 1 76.157 82.155 10.719 
4331 C 1 77.503 81.802 8.062 
246 C 1 78.353 81.426 11.523 
235 C 1 78.353 81.426 15.275 
32 C 1 75.696 82.215 8.307 
19 C 1 77.503 81.802 10.451 
249 C 1 76.157 82.155 14.471 
33 C 1 75.232 82.244 9.647 
31 C 1 77.062 81.949 8.039 
4332 C 1 76.157 82.155 8.33 
313 C 1 71.647 68.574 20.902 
314 C 1 72.938 68.051 21.17 
322 C 1 71.647 68.574 17.151 
323 C 1 72.066 68.372 18.49 
324 C 1 73.387 67.934 18.758 
325 C 1 73.843 67.845 20.098 
335 C 1 72.497 68.198 16.079 
336 C 1 73.843 67.845 16.347 
337 C 1 74.304 67.785 17.686 
553 C 1 73.387 67.934 22.51 
554 C 1 74.768 67.756 22.778 
326 C 1 75.232 67.756 20.366 
327 C 1 75.696 67.785 21.706 
328 C 1 77.062 68.051 21.974 
338 C 1 75.696 67.785 17.954 
339 C 1 76.157 67.845 19.294 
340 C 1 77.503 68.198 19.562 
341 C 1 77.934 68.372 20.902 
349 C 1 76.613 67.934 16.883 
350 C 1 77.934 68.372 17.151 
351 C 1 78.353 68.574 18.49 
567 C 1 77.503 68.198 23.314 
272 C 1 67.767 74.536 21.974 
284 C 1 67.811 74.073 19.562 
285 C 1 67.886 73.614 20.902 
286 C 1 68.282 72.28 21.17 
294 C 1 67.886 73.614 17.151 
295 C 1 67.989 73.161 18.49 
296 C 1 68.47 71.855 18.758 
297 C 1 68.685 71.443 20.098 
307 C 1 68.121 72.716 16.079 
308 C 1 68.685 71.443 16.347 
511 C 1 67.811 74.073 23.314 
525 C 1 68.47 71.855 22.51 
298 C 1 69.481 70.302 20.366 
299 C 1 69.793 69.958 21.706 
300 C 1 70.853 69.055 21.974 
309 C 1 68.925 71.046 17.686 
310 C 1 69.793 69.958 17.954 
311 C 1 70.127 69.634 19.294 
312 C 1 71.243 68.802 19.562 
321 C 1 70.481 69.333 16.883 
526 C 1 69.191 70.665 22.778 
539 C 1 71.243 68.802 23.314 
5101 H 2 74.8345 70.3858 18.7156 
5406 O 3 73.642 71.1448 16.5171 
5408 H 2 73.3423 71.4604 15.6645 
5407 H 2 74.5938 71.242 16.4879 
4924 H 2 72.9662 74.9658 17.8324 
4925 H 2 72.567 74.4526 16.4652 
5179 H 2 74.6467 74.1197 18.0755 
4793 H 2 72.5102 73.1066 20.242 
4791 O 3 72.2769 73.7188 19.5441 
5057 H 2 73.4253 71.8557 22.1048 
5056 H 2 72.1613 71.254 21.5286 
5055 O 3 72.913 71.7999 21.2981 
5102 H 2 74.3795 70.7931 20.1008 
5180 H 2 74.8481 73.1831 19.2478 
4792 H 2 72.0162 74.5175 20.0027 
5100 O 3 75.1633 70.6917 19.5609 
5669 H 2 77.1989 72.0311 20.1874 
5667 O 3 77.7209 72.8194 20.0381 
5668 H 2 77.1196 73.4275 19.608 
5178 O 3 75.2395 73.9355 18.8042 
4577 H 2 78.2159 74.7057 17.7351 
4575 O 3 78.3521 73.7791 17.5376 
4624 H 2 78.7649 74.361 20.6861 
342 C 1 79.147 69.055 21.17 
352 C 1 79.519 69.333 18.758 
353 C 1 79.873 69.634 20.098 
354 C 1 80.809 70.665 20.366 
355 C 1 81.075 71.046 21.706 
363 C 1 78.757 68.802 16.079 
364 C 1 79.873 69.634 16.347 
365 C 1 80.207 69.958 17.686 
366 C 1 81.075 71.046 17.954 
577 C 1 79.519 69.333 22.51 
578 C 1 80.519 70.302 22.778 
5697 O 3 76.2599 74.7639 22.5403 
4576 H 2 78.7218 73.4142 18.3416 
4705 H 2 77.1193 73.2016 23.2858 
356 C 1 81.718 72.28 21.974 
367 C 1 81.315 71.443 19.294 
368 C 1 81.879 72.716 19.562 
369 C 1 82.011 73.161 20.902 
370 C 1 82.233 74.536 21.17 
377 C 1 81.53 71.855 16.883 
378 C 1 82.011 73.161 17.151 
379 C 1 82.114 73.614 18.49 
387 C 1 82.189 74.073 16.079 
585 C 1 81.879 72.716 23.314 
258 C 1 68.685 78.557 21.17 
268 C 1 68.47 78.145 18.758 
269 C 1 68.282 77.72 20.098 
270 C 1 67.886 76.386 20.366 
271 C 1 67.811 75.927 21.706 
280 C 1 68.282 77.72 16.347 
281 C 1 68.121 77.284 17.686 
282 C 1 67.811 75.927 17.954 
283 C 1 67.767 75.464 19.294 
293 C 1 67.752 75 16.883 
497 C 1 68.47 78.145 22.51 
498 C 1 67.989 76.839 22.778 
4923 O 3 73.0888 75.1289 16.8972 
5216 H 2 74.4585 76.5891 20.5889 
5503 H 2 73.3848 78.3967 16.1741 
243 C 1 71.243 81.198 21.706 
244 C 1 70.127 80.366 21.974 
254 C 1 71.243 81.198 17.954 
255 C 1 70.853 80.945 19.294 
256 C 1 69.793 80.042 19.562 
257 C 1 69.481 79.698 20.902 
265 C 1 70.481 80.667 16.883 
266 C 1 69.481 79.698 17.151 
267 C 1 69.191 79.335 18.49 
279 C 1 68.925 78.954 16.079 
483 C 1 69.793 80.042 23.314 
4765 H 2 72.2769 75.1691 22.2505 
4766 H 2 71.976 76.5377 21.6776 
4764 O 3 72.0257 75.6119 21.4399 
4824 O 3 72.7764 78.2625 21.785 
4825 H 2 73.6422 78.6366 21.948 
5154 O 3 72.9869 78 18.7512 
5155 H 2 73.9052 77.8585 18.521 
5156 H 2 72.5736 78.2733 17.9322 
4826 H 2 72.6919 78.2592 20.8315 
5345 H 2 74.9272 76.0579 17.2747 
5502 O 3 72.4483 78.2154 16.0947 
5504 H 2 72.3902 77.2604 16.067 
5215 H 2 75.2908 75.6075 19.7917 
5214 O 3 75.3613 76.3079 20.4404 
4623 O 3 78.7142 75.2271 21.0905 
4625 H 2 78.1267 75.1094 21.837 
5699 H 2 75.7988 75.209 21.8293 
4699 H 2 77.0388 77.2394 20.2713 
4700 H 2 78.4722 77.0789 20.7314 
4698 O 3 77.8803 77.6949 20.2996 
4617 O 3 78.2843 76.4941 17.8763 
4618 H 2 78.9427 76.7828 17.2444 
204 C 1 81.075 78.954 19.562 
205 C 1 80.809 79.335 20.902 
206 C 1 79.873 80.366 21.17 
210 C 1 80.809 79.335 17.151 
211 C 1 80.519 79.698 18.49 
212 C 1 79.519 80.667 18.758 
213 C 1 79.147 80.945 20.098 
223 C 1 80.207 80.042 16.079 
224 C 1 79.147 80.945 16.347 
225 C 1 78.757 81.198 17.686 
427 C 1 81.075 78.954 23.314 
441 C 1 79.519 80.667 22.51 
4619 H 2 78.4451 77.0306 18.6525 
5343 O 3 75.2391 76.9466 17.4456 
5344 H 2 76.1332 76.8295 17.7667 
5539 H 2 75.6547 78.8625 21.1488 
5538 O 3 75.6372 78.8355 22.1055 
5698 H 2 75.9512 75.1983 23.3354 
5540 H 2 76.3137 78.2001 22.34 
4517 H 2 76.3833 77.7851 15.7685 
197 C 1 82.233 75.464 20.098 
198 C 1 82.011 76.839 20.366 
199 C 1 81.879 77.284 21.706 
200 C 1 81.315 78.557 21.974 
201 C 1 82.189 75.927 17.686 
202 C 1 81.879 77.284 17.954 
203 C 1 81.718 77.72 19.294 
209 C 1 81.53 78.145 16.883 
380 C 1 82.248 75 18.758 
388 C 1 82.233 75.464 16.347 
413 C 1 82.248 75 22.51 
414 C 1 82.114 76.386 22.778 
230 C 1 73.843 82.155 21.17 
239 C 1 74.768 82.244 18.49 
240 C 1 73.387 82.066 18.758 
241 C 1 72.938 81.949 20.098 
242 C 1 71.647 81.426 20.366 
251 C 1 74.304 82.215 16.079 
252 C 1 72.938 81.949 16.347 
253 C 1 72.497 81.802 17.686 
469 C 1 73.387 82.066 22.51 
470 C 1 72.066 81.628 22.778 
214 C 1 77.934 81.628 20.366 
215 C 1 77.503 81.802 21.706 
216 C 1 76.157 82.155 21.974 
226 C 1 77.503 81.802 17.954 
227 C 1 77.062 81.949 19.294 
228 C 1 75.696 82.215 19.562 
229 C 1 75.232 82.244 20.902 
237 C 1 76.613 82.066 16.883 
238 C 1 75.232 82.244 17.151 
442 C 1 78.353 81.426 22.778 
455 C 1 75.696 82.215 23.314 
518 C 1 71.647 68.574 28.406 
519 C 1 72.066 68.372 29.745 
520 C 1 73.387 67.934 30.013 
530 C 1 72.066 68.372 25.994 
531 C 1 72.497 68.198 27.334 
532 C 1 73.843 67.845 27.602 
533 C 1 74.304 67.785 28.941 
540 C 1 72.497 68.198 23.582 
541 C 1 72.938 68.051 24.922 
542 C 1 74.304 67.785 25.19 
543 C 1 74.768 67.756 26.53 
534 C 1 75.696 67.785 29.209 
535 C 1 76.157 67.845 30.549 
536 C 1 77.503 68.198 30.817 
544 C 1 76.157 67.845 26.798 
545 C 1 76.613 67.934 28.138 
546 C 1 77.934 68.372 28.406 
547 C 1 78.353 68.574 29.745 
555 C 1 75.232 67.756 24.118 
556 C 1 76.613 67.934 24.386 
557 C 1 77.062 68.051 25.726 
558 C 1 78.353 68.574 25.994 
480 C 1 67.811 74.073 30.817 
490 C 1 67.886 73.614 28.406 
491 C 1 67.989 73.161 29.745 
492 C 1 68.47 71.855 30.013 
501 C 1 67.767 74.536 25.726 
502 C 1 67.989 73.161 25.994 
503 C 1 68.121 72.716 27.334 
504 C 1 68.685 71.443 27.602 
512 C 1 68.121 72.716 23.582 
513 C 1 68.282 72.28 24.922 
5472 O 3 73.7745 71.1141 23.977 
5473 H 2 73.5805 70.9315 24.8963 
5474 H 2 74.7304 71.1387 23.9337 
505 C 1 68.925 71.046 28.941 
506 C 1 69.793 69.958 29.209 
507 C 1 70.127 69.634 30.549 
508 C 1 71.243 68.802 30.817 
514 C 1 68.925 71.046 25.19 
515 C 1 69.191 70.665 26.53 
516 C 1 70.127 69.634 26.798 
517 C 1 70.481 69.333 28.138 
527 C 1 69.481 70.302 24.118 
528 C 1 70.481 69.333 24.386 
529 C 1 70.853 69.055 25.726 
5162 H 2 73.3424 71.3826 28.0636 
5160 O 3 73.5612 71.6468 27.17 
5161 H 2 72.8371 72.213 26.903 
4524 O 3 72.8283 71.5234 30.1006 
4689 O 3 72.1006 74.079 30.6719 
4811 H 2 70.8937 73.6778 25.6476 
4809 O 3 71.5945 73.6529 26.2991 
4810 H 2 71.5126 74.4814 26.7715 
4691 H 2 71.9765 73.1327 30.5996 
4525 H 2 72.6609 71.2841 31.0122 
4526 H 2 73.7824 71.561 30.0337 
5054 H 2 72.532 74.4593 24.281 
4690 H 2 71.7989 74.4255 29.8321 
4747 H 2 74.1489 74.4959 30.573 
5568 O 3 76.6407 71.0522 27.6893 
5569 H 2 75.7943 71.4937 27.6198 
5570 H 2 77.0576 71.1976 26.8399 
5436 O 3 78.9297 74.4568 27.9488 
4598 H 2 77.4214 74.49 26.8199 
4596 O 3 76.895 74.4013 26.0254 
4704 O 3 77.3288 72.622 24.0182 
4725 O 3 75.8199 71.0681 30.3089 
4706 H 2 77.1637 73.1516 24.7982 
4727 H 2 76.5628 71.6623 30.4153 
548 C 1 79.519 69.333 30.013 
559 C 1 78.757 68.802 27.334 
560 C 1 79.873 69.634 27.602 
561 C 1 80.207 69.958 28.941 
562 C 1 81.075 71.046 29.209 
568 C 1 78.757 68.802 23.582 
569 C 1 79.147 69.055 24.922 
570 C 1 80.207 69.958 25.19 
571 C 1 80.519 70.302 26.53 
579 C 1 80.809 70.665 24.118 
4726 H 2 76.2002 70.2727 29.9363 
5437 H 2 79.173 74.1926 28.8361 
4553 H 2 79.3172 74.846 24.0307 
4746 O 3 75.0213 74.8778 30.6691 
5438 H 2 79.5895 74.0493 27.3877 
4651 H 2 76.7151 73.6172 31.0022 
4650 O 3 77.6162 73.2961 30.969 
563 C 1 81.315 71.443 30.549 
564 C 1 81.879 72.716 30.817 
572 C 1 81.315 71.443 26.798 
573 C 1 81.53 71.855 28.138 
574 C 1 82.011 73.161 28.406 
575 C 1 82.114 73.614 29.745 
580 C 1 81.53 71.855 24.386 
581 C 1 81.718 72.28 25.726 
582 C 1 82.114 73.614 25.994 
583 C 1 82.189 74.073 27.334 
586 C 1 82.189 74.073 23.582 
587 C 1 82.233 74.536 24.922 
464 C 1 68.47 78.145 30.013 
476 C 1 68.282 77.72 27.602 
477 C 1 68.121 77.284 28.941 
478 C 1 67.811 75.927 29.209 
479 C 1 67.767 75.464 30.549 
485 C 1 68.685 78.557 24.922 
486 C 1 68.121 77.284 25.19 
487 C 1 67.989 76.839 26.53 
488 C 1 67.767 75.464 26.798 
489 C 1 67.752 75 28.138 
499 C 1 67.886 76.386 24.118 
500 C 1 67.752 75 24.386 
4821 O 3 74.3201 75.7505 27.6296 
5053 H 2 71.9733 75.85 24.4951 
5052 O 3 72.6109 75.3624 23.9736 
4550 H 2 74.6707 78.7795 28.5625 
4879 H 2 74.0206 76.1387 24.5402 
4878 O 3 74.9217 76.4614 24.5509 
450 C 1 71.243 81.198 29.209 
451 C 1 70.853 80.945 30.549 
452 C 1 69.793 80.042 30.817 
460 C 1 70.853 80.945 26.798 
461 C 1 70.481 80.667 28.138 
462 C 1 69.481 79.698 28.406 
463 C 1 69.191 79.335 29.745 
472 C 1 70.481 80.667 24.386 
473 C 1 70.127 80.366 25.726 
474 C 1 69.191 79.335 25.994 
475 C 1 68.925 78.954 27.334 
484 C 1 68.925 78.954 23.582 
5045 H 2 70.943 76.3301 28.2882 
5044 H 2 72.3215 75.8083 27.943 
5043 O 3 71.4432 75.5198 28.1912 
5714 H 2 72.8411 78.0211 26.3199 
5712 O 3 72.0764 77.5309 26.0178 
5713 H 2 71.7767 78.0069 25.2433 
4708 H 2 74.9011 78.0084 25.7825 
4548 O 3 74.6976 78.8643 29.5156 
4748 H 2 74.8798 75.6734 31.1821 
4880 H 2 74.9536 77.1079 23.8458 
4823 H 2 74.8086 76.5518 27.8184 
4822 H 2 74.8552 75.0499 28.0024 
4549 H 2 74.9324 79.7795 29.6686 
4951 H 2 74.0224 77.7505 31.1478 
4597 H 2 76.1774 75.0239 26.1422 
4552 H 2 78.1945 75.1882 24.9869 
5117 H 2 76.5376 76.1209 29.972 
4551 O 3 79.0733 75.4607 24.7228 
4570 H 2 78.2322 76.936 24.1934 
4569 O 3 77.731 77.7213 23.9735 
4709 H 2 76.014 78.3293 26.7575 
4707 O 3 75.1087 78.5533 26.5416 
400 C 1 81.075 78.954 30.817 
406 C 1 80.809 79.335 28.406 
407 C 1 80.519 79.698 29.745 
408 C 1 79.519 80.667 30.013 
418 C 1 80.519 79.698 25.994 
419 C 1 80.207 80.042 27.334 
420 C 1 79.147 80.945 27.602 
421 C 1 78.757 81.198 28.941 
428 C 1 80.207 80.042 23.582 
429 C 1 79.873 80.366 24.922 
430 C 1 78.757 81.198 25.19 
5633 H 2 78.4823 76.9294 27.1587 
4571 H 2 77.7178 78.2321 24.7829 
5631 O 3 77.7619 77.545 27.2948 
5632 H 2 77.6839 77.6164 28.2462 
5115 O 3 77.0789 76.7918 30.3881 
417 C 1 81.315 78.557 25.726 
398 C 1 81.879 77.284 29.209 
399 C 1 81.718 77.72 30.549 
397 C 1 82.189 75.927 28.941 
584 C 1 82.233 75.464 27.602 
588 C 1 82.189 75.927 25.19 
404 C 1 81.718 77.72 26.798 
403 C 1 82.114 76.386 26.53 
415 C 1 82.011 76.839 24.118 
405 C 1 81.53 78.145 28.138 
576 C 1 82.248 75 30.013 
416 C 1 81.53 78.145 24.386 
448 C 1 72.938 81.949 27.602 
435 C 1 74.768 82.244 29.745 
447 C 1 74.304 82.215 27.334 
458 C 1 72.497 81.802 25.19 
459 C 1 72.066 81.628 26.53 
436 C 1 73.387 82.066 30.013 
471 C 1 71.647 81.426 24.118 
457 C 1 73.843 82.155 24.922 
446 C 1 74.768 82.244 25.994 
456 C 1 74.304 82.215 23.582 
449 C 1 72.497 81.802 28.941 
424 C 1 75.696 82.215 30.817 
423 C 1 77.062 81.949 30.549 
432 C 1 77.062 81.949 26.798 
443 C 1 77.934 81.628 24.118 
431 C 1 78.353 81.426 26.53 
433 C 1 76.613 82.066 28.138 
422 C 1 77.503 81.802 29.209 
444 C 1 76.613 82.066 24.386 
445 C 1 76.157 82.155 25.726 
434 C 1 75.232 82.244 28.406 
509 C 1 71.647 68.574 32.157 
510 C 1 72.938 68.051 32.425 
521 C 1 73.843 67.845 31.353 
726 C 1 72.066 68.372 37.249 
727 C 1 72.497 68.198 38.589 
728 C 1 73.843 67.845 38.857 
736 C 1 72.497 68.198 34.837 
737 C 1 72.938 68.051 36.177 
738 C 1 74.304 67.785 36.445 
739 C 1 74.768 67.756 37.785 
749 C 1 73.387 67.934 33.765 
750 C 1 74.768 67.756 34.033 
522 C 1 75.232 67.756 31.621 
523 C 1 75.696 67.785 32.961 
524 C 1 77.062 68.051 33.229 
537 C 1 77.934 68.372 32.157 
740 C 1 76.157 67.845 38.053 
751 C 1 75.232 67.756 35.373 
752 C 1 76.613 67.934 35.641 
753 C 1 77.062 68.051 36.981 
754 C 1 78.353 68.574 37.249 
763 C 1 77.503 68.198 34.569 
468 C 1 67.767 74.536 33.229 