ITEM: TIMESTEP
437791
ITEM: NUMBER OF ATOMS
6173
ITEM: BOX BOUNDS pp pp pp
0.0000000000000000e+00 2.5000000000000000e+02
0.0000000000000000e+00 2.5000000000000000e+02
0.0000000000000000e+00 2.8837799999999999e+02
ITEM: ATOMS id element type x y z 
209 C 1 120.084 124.585 0.770427 
210 C 1 120.503 123.579 1.71509 
214 C 1 120.058 124.665 5.87268 
266 C 1 121.422 122.489 1.38949 
267 C 1 122.196 121.74 2.3412 
268 C 1 120.367 123.943 3.11376 
269 C 1 120.846 123.034 4.13845 
270 C 1 120.694 123.4 5.48538 
271 C 1 121.379 122.631 6.49229 
273 C 1 120.311 124.051 8.19168 
321 C 1 123.825 121.047 0.580004 
322 C 1 123.428 121.196 1.97416 
324 C 1 121.777 121.931 3.72248 
325 C 1 122.64 121.283 4.74013 
326 C 1 122.39 121.699 6.12239 
327 C 1 123.307 121.175 7.17778 
328 C 1 121.043 122.841 7.87853 
381 C 1 124.028 120.868 4.34974 
385 C 1 122.918 121.377 8.51008 
323 C 1 124.413 120.944 2.96008 
383 C 1 124.677 120.804 6.79255 
3630 O 3 124.155 123.819 1.44022 
3631 H 2 123.584 124.521 1.12964 
3651 O 3 123.771 123.77 4.2005 
3657 O 3 123.811 123.888 7.02614 
3653 H 2 123.285 124.467 3.76065 
3632 H 2 124.108 123.151 0.756506 
3658 H 2 123.409 123.909 6.15775 
3704 H 2 123.429 123.937 8.81739 
3652 H 2 124.09 123.214 3.48931 
3659 H 2 124.214 124.751 7.12446 
329 C 1 121.672 122.059 8.85274 
265 C 1 121.698 122.227 0.0343308 
3649 H 2 125.327 123.456 6.23695 
3629 H 2 125.57 123.803 2.32903 
3683 H 2 125.14 123.515 7.98483 
3681 O 3 125.921 123.656 8.52082 
3648 O 3 126.081 123.57 5.65898 
382 C 1 125.054 120.702 5.38265 
3650 H 2 125.727 123.454 4.77706 
3628 H 2 126.988 123.54 2.78987 
3627 O 3 126.124 123.802 3.10937 
377 C 1 125.205 120.879 0.228843 
378 C 1 126.187 120.925 1.28858 
379 C 1 125.774 120.878 2.65453 
380 C 1 126.775 121.093 3.69647 
384 C 1 125.718 120.804 7.73189 
434 C 1 127.603 121.254 0.927745 
435 C 1 128.45 121.786 1.96552 
436 C 1 128.111 121.603 3.36581 
437 C 1 128.924 122.299 4.34768 
438 C 1 126.461 120.883 5.05443 
439 C 1 127.438 121.215 6.04714 
440 C 1 127.106 121.095 7.40316 
441 C 1 127.994 121.657 8.41089 
490 C 1 129.408 122.816 1.58553 
491 C 1 130.008 123.666 2.64283 
492 C 1 129.842 123.32 3.97975 
493 C 1 130.348 124.196 5.01294 
494 C 1 128.605 122.058 5.76454 
495 C 1 129.428 122.701 6.73576 
496 C 1 129.152 122.523 8.08544 
547 C 1 130.183 123.891 6.38755 
549 C 1 130.356 124.527 8.73812 
433 C 1 129.759 123.016 0.149435 
3688 H 2 127.905 124.934 6.44615 
3689 H 2 127.093 124.447 7.62792 
548 C 1 130.471 124.904 7.35404 
544 C 1 130.552 124.947 2.24243 
6173 H 2 125.763 124.107 0.410681 
6171 O 3 126.709 123.97 0.376921 
3673 H 2 127.043 124.798 4.66609 
272 C 1 119.892 125.002 7.2427 
212 C 1 120.008 125.313 3.4518 
3634 H 2 122.061 126.006 3.50717 
3655 H 2 122.625 126.756 5.30977 
213 C 1 119.799 125.657 4.81945 
3654 O 3 122.491 125.827 5.49911 
3690 O 3 122.512 126.026 8.08062 
3656 H 2 122.22 125.806 6.41701 
3692 H 2 122.859 126.769 7.58506 
3633 O 3 122.633 125.787 2.7713 
3635 H 2 122.042 125.716 2.02145 
68 C 1 122.628 131.078 4.02143 
105 C 1 120.222 128.402 0.389144 
106 C 1 121.987 130.666 1.25339 
107 C 1 121.211 129.912 2.1984 
108 C 1 121.413 130.257 3.57874 
109 C 1 120.76 129.388 4.59207 
111 C 1 121.99 130.598 6.35935 
112 C 1 122.203 130.835 7.78371 
113 C 1 121.378 130.249 8.76689 
155 C 1 119.817 125.993 1.06021 
156 C 1 120.411 128.742 1.77622 
157 C 1 120.05 127.787 2.79193 
158 C 1 120.123 128.132 4.23083 
159 C 1 119.842 127.077 5.19606 
160 C 1 121.01 129.643 5.99376 
161 C 1 120.45 128.731 6.954 
162 C 1 120.559 129.103 8.3529 
211 C 1 119.866 126.38 2.45395 
215 C 1 120.018 127.45 6.56367 
216 C 1 119.842 126.421 7.6191 
3621 O 3 122.992 127.921 1.18346 
3660 O 3 123.229 128.067 3.94956 
3691 H 2 122.233 126.404 8.91457 
110 C 1 122.828 131.224 5.40241 
3622 H 2 123.708 128.556 1.20923 
3678 O 3 123.252 128.081 6.70719 
3662 H 2 123.827 127.333 4.08844 
154 C 1 119.811 127.066 0.0395472 
3623 H 2 122.831 127.704 2.10161 
3679 H 2 124.202 128.065 6.58493 
3661 H 2 123.194 128.512 4.79653 
3680 H 2 123.122 128.595 7.50401 
3637 H 2 124.441 126.607 1.5175 
3664 H 2 124.709 125.417 4.24588 
3646 H 2 124.261 128.815 2.94564 
3687 O 3 127.801 125.046 7.39107 
3674 H 2 128.183 125.453 3.91632 
3672 O 3 127.86 125.279 4.80012 
3640 H 2 128.326 125.508 1.33102 
3639 O 3 127.871 125.813 2.11584 
3641 H 2 126.944 125.677 1.92378 
3665 H 2 125.211 126.328 5.34599 
6170 H 2 125.522 129.223 0.141947 
3638 H 2 125.235 126.118 2.71011 
3686 H 2 126.276 125.905 7.10783 
3685 H 2 125.07 126.384 7.88639 
3697 H 2 127.95 126.408 8.26457 
3677 H 2 128.563 127.629 6.44045 
3644 H 2 127.481 127.152 2.94705 
3636 O 3 125.336 126.508 1.84199 
3663 O 3 125.17 126.243 4.39346 
3671 H 2 125.429 129.102 4.53641 
3684 O 3 125.369 126.19 6.99823 
3670 H 2 126.329 128.629 5.65822 
489 C 1 130.574 125.305 0.868898 
3667 H 2 125.62 128.934 7.10998 
3647 H 2 125.595 128.317 2.43134 
546 C 1 130.771 125.586 4.60759 
3666 O 3 125.911 128.731 7.99896 
3668 H 2 126.736 128.26 7.87977 
3645 O 3 125.035 129.093 2.45543 
3643 H 2 127.555 127.742 4.3392 
2 C 1 130.372 127.75 1.54449 
4 C 1 129.875 129.04 1.13679 
5 C 1 129.296 129.932 2.17016 
6 C 1 130.55 127.395 2.912 
7 C 1 130.24 128.366 3.90498 
8 C 1 130.484 128.059 5.32909 
9 C 1 129.977 128.982 6.35796 
11 C 1 130.516 127.286 8.08942 
15 C 1 127.99 131.022 0.3519 
16 C 1 128.296 130.855 1.72704 
18 C 1 129.545 129.587 3.53265 
19 C 1 128.886 130.347 4.585 
20 C 1 129.052 130.018 5.92535 
21 C 1 128.206 130.67 6.8771 
22 C 1 130.117 128.63 7.74478 
23 C 1 129.506 129.531 8.71576 
43 C 1 128.52 130.482 8.33344 
3642 O 3 127.496 127.986 3.41558 
3669 O 3 125.42 128.859 5.46201 
3676 H 2 127.67 126.646 5.71298 
3675 O 3 127.718 127.56 5.99565 
1 C 1 130.602 126.728 0.541926 
545 C 1 130.679 125.991 3.21748 
10 C 1 130.674 126.271 7.04997 
3 C 1 130.741 126.644 5.64452 
3696 O 3 127.69 127.078 8.89697 
3624 O 3 127.113 128.186 0.709315 
3625 H 2 127.4 128.446 1.58472 
3626 H 2 126.373 127.599 0.863827 
39 C 1 127.684 131.113 4.15807 
66 C 1 123.25 131.265 1.61646 
72 C 1 123.528 131.369 8.18319 
67 C 1 123.602 131.391 3.00796 
65 C 1 124.208 131.563 0.645587 
70 C 1 124.235 131.548 5.81373 
71 C 1 124.562 131.612 7.22767 
38 C 1 124.979 131.71 3.44946 
17 C 1 127.397 131.339 2.77525 
41 C 1 127.032 131.376 6.55243 
40 C 1 126.712 131.517 5.1566 
73 C 1 126.332 131.523 8.96124 
69 C 1 125.296 131.716 4.82956 
37 C 1 126.053 131.719 2.42827 
36 C 1 125.604 131.717 0.989211 
42 C 1 125.959 131.564 7.55936 
274 C 1 120.123 124.405 9.59737 
275 C 1 120.514 123.366 10.6156 
279 C 1 119.996 124.39 14.7832 
330 C 1 121.33 122.252 10.2486 
331 C 1 122.185 121.627 11.2277 
332 C 1 120.258 123.661 11.9771 
333 C 1 120.853 122.807 12.9829 
334 C 1 120.62 123.122 14.3592 
335 C 1 121.209 122.295 15.3725 
336 C 1 119.851 124.745 16.1929 
337 C 1 120.257 123.757 17.1917 
386 C 1 123.86 121.094 9.53104 
387 C 1 123.488 121.088 10.9298 
389 C 1 121.867 121.802 12.5967 
390 C 1 122.786 121.359 13.6335 
391 C 1 122.358 121.502 15.0404 
392 C 1 123.326 121.08 16.0454 
393 C 1 120.996 122.619 16.7557 
446 C 1 124.151 121.005 13.2509 
450 C 1 122.996 121.084 17.4955 
388 C 1 124.531 120.913 11.8829 
394 C 1 121.719 121.875 17.7868 
3771 O 3 124.951 123.489 16.6561 
3734 H 2 124.605 123.806 10.7649 
3773 H 2 124.194 123.874 16.2152 
3729 O 3 123.306 124.2 12.4486 
3740 H 2 124.979 122.923 14.6048 
3702 O 3 123.393 124.069 9.76478 
3766 H 2 122.384 124.266 14.5709 
448 C 1 124.725 120.806 15.6647 
3772 H 2 124.611 123.186 17.4978 
3730 H 2 122.928 123.777 11.6773 
3765 O 3 122.969 124.445 15.3075 
3739 H 2 124.489 123.679 13.3885 
3703 H 2 122.854 124.851 9.87813 
3731 H 2 123.969 124.794 12.0965 
3784 H 2 122.81 123.855 17.6597 
3682 H 2 125.684 124.375 9.10644 
3718 H 2 127.979 124.298 9.48577 
3738 O 3 125.274 123.511 13.9096 
3733 H 2 125.758 122.826 10.7717 
3732 O 3 125.472 123.661 11.1419 
3736 H 2 126.548 124.492 12.6619 
497 C 1 129.795 123.243 9.15404 
3719 H 2 126.786 124.383 10.4133 
3758 H 2 126.529 123.812 15.7159 
447 C 1 125.153 120.886 14.2758 
442 C 1 125.261 120.879 9.15849 
443 C 1 126.321 121.008 10.1187 
444 C 1 125.917 120.967 11.513 
445 C 1 126.955 121.242 12.5438 
449 C 1 125.775 120.864 16.7161 
498 C 1 127.631 121.478 9.77963 
499 C 1 128.532 122.017 10.7783 
500 C 1 128.215 121.839 12.1533 
501 C 1 128.958 122.427 13.2913 
502 C 1 126.597 121.028 13.9792 
503 C 1 127.55 121.324 15.0172 
504 C 1 127.208 121.115 16.3711 
505 C 1 128.103 121.62 17.3716 
551 C 1 129.661 122.897 10.5243 
552 C 1 130.141 123.858 11.5433 
553 C 1 129.912 123.498 12.9372 
554 C 1 130.317 124.48 13.9822 
555 C 1 128.749 122.079 14.6564 
556 C 1 129.49 122.813 15.6761 
557 C 1 129.104 122.596 17.0417 
600 C 1 130.197 124.063 15.3672 
602 C 1 130.31 124.669 17.7567 
3757 H 2 127.427 124.191 14.5571 
3756 O 3 127.277 124.364 15.4867 
3717 O 3 127.629 124.794 10.2256 
3737 H 2 127.863 124.803 11.9802 
3735 O 3 127.431 124.818 12.8343 
3794 H 2 127.528 124.091 17.425 
282 C 1 119.782 126.51 17.9666 
277 C 1 119.815 125.026 12.3543 
3785 H 2 122.478 125.315 17.4376 
3699 O 3 123.429 128.494 9.35188 
3700 H 2 124.293 128.08 9.36642 
217 C 1 119.813 126.809 9.01449 
3767 H 2 123.055 125.398 15.3194 
278 C 1 119.801 125.38 13.77 
3714 O 3 122.494 126.425 10.6786 
3728 H 2 122.986 125.72 13.29 
3715 H 2 122.568 127.329 10.3735 
3716 H 2 121.955 126.481 11.4677 
3726 O 3 122.478 126.463 13.6169 
3763 H 2 122.198 127.096 15.4852 
218 C 1 119.801 125.73 9.97364 
3727 H 2 123.136 127.105 13.883 
117 C 1 122.229 130.858 12.9464 
163 C 1 120.095 128.197 9.37793 
164 C 1 121.638 130.44 10.1698 
165 C 1 120.942 129.678 11.1574 
166 C 1 121.183 130.004 12.5449 
167 C 1 120.51 129.141 13.5712 
168 C 1 122.553 131.083 14.3016 
169 C 1 121.715 130.5 15.3561 
170 C 1 121.956 130.754 16.7141 
171 C 1 121.169 130.017 17.7121 
219 C 1 120.23 128.444 10.843 
220 C 1 119.962 127.403 11.7877 
221 C 1 120.028 127.823 13.1635 
222 C 1 119.787 126.795 14.1852 
223 C 1 120.763 129.482 14.9307 
224 C 1 120.274 128.555 15.9427 
225 C 1 120.427 128.857 17.3596 
276 C 1 119.782 126.065 11.3864 
280 C 1 119.894 127.143 15.5848 
281 C 1 119.796 126.122 16.593 
3762 O 3 122.516 126.786 16.3332 
3764 H 2 123.201 127.409 16.5748 
3720 O 3 123.683 128.455 11.9713 
3744 O 3 123.754 128.468 14.6574 
115 C 1 122.882 131.147 10.6025 
3721 H 2 123.589 128.651 12.9035 
3768 O 3 123.963 128.716 17.2626 
3745 H 2 123.887 128.831 15.5331 
3712 H 2 124.44 126.829 11.9073 
3701 H 2 123.397 129.01 10.1571 
3722 H 2 124.602 128.64 11.7781 
3746 H 2 124.634 128.411 14.2852 
3754 H 2 124.946 125.208 17.3828 
3769 H 2 124.748 128.231 17.0051 
601 C 1 130.495 125.037 16.3974 
3695 H 2 125.257 126.075 10.4676 
597 C 1 130.512 125.237 11.1995 
3761 H 2 126.485 128.739 17.6969 
77 C 1 127.427 131.219 13.1146 
3752 H 2 127.574 126.065 14.0666 
3778 H 2 127.607 125.764 16.5569 
3749 H 2 125.242 125.15 14.6518 
3693 O 3 125.308 126.211 9.52145 
3694 H 2 126.107 126.723 9.3952 
3698 H 2 127.86 126.681 9.75103 
3779 H 2 128.587 126.398 17.5211 
3777 O 3 127.844 126.602 16.9528 
3725 H 2 128.332 127.024 12.3997 
3751 H 2 128.168 126.895 15.1849 
3750 O 3 127.794 126.965 14.3064 
3748 H 2 125.054 126.197 15.7292 
3724 H 2 127.038 126.653 11.707 
3707 H 2 126.757 128.31 10.6438 
3713 H 2 125.205 126.184 13.0442 
3753 O 3 125.033 126.148 17.2227 
3747 O 3 125.103 126.089 14.7795 
3711 O 3 125.078 126.141 12.0963 
44 C 1 127.666 131.085 9.34616 
3706 H 2 125.981 129.207 9.7025 
81 C 1 128.275 130.565 17.297 
3723 O 3 127.761 127.279 11.6751 
3743 H 2 126.32 128.735 14.9935 
550 C 1 130.492 125.579 9.80309 
3705 O 3 126.007 128.904 10.6102 
3709 H 2 125.954 128.905 12.364 
3710 H 2 126.837 128.085 13.2802 
3742 H 2 126.651 127.672 16.0197 
3708 O 3 126.051 128.63 13.2758 
598 C 1 130.698 126.238 12.2171 
12 C 1 130.577 126.964 9.43126 
599 C 1 130.542 125.834 13.5918 
14 C 1 130.623 126.817 14.6195 
30 C 1 130.693 126.423 16.0393 
13 C 1 130.355 127.957 10.4256 
25 C 1 129.074 129.997 11.1127 
24 C 1 129.663 129.177 10.1275 
26 C 1 130.501 127.589 11.8208 
27 C 1 130.114 128.554 12.846 
31 C 1 130.469 127.435 17.0255 
48 C 1 128.597 130.44 13.5013 
45 C 1 127.987 130.869 10.6874 
28 C 1 130.269 128.213 14.2575 
29 C 1 129.727 129.053 15.3087 
47 C 1 129.321 129.697 12.4788 
51 C 1 129.856 128.732 16.6917 
52 C 1 129.303 129.614 17.654 
49 C 1 128.835 130.185 14.8852 
3741 O 3 126.224 128.523 15.9221 
50 C 1 127.999 130.786 15.9588 
116 C 1 123.203 131.261 11.9973 
121 C 1 123.236 131.425 17.1062 
118 C 1 124.968 131.601 13.6962 
120 C 1 124.233 131.564 16.0674 
114 C 1 123.896 131.571 9.59031 
119 C 1 123.906 131.504 14.7252 
76 C 1 124.599 131.631 12.3393 
78 C 1 126.387 131.501 14.1569 
80 C 1 125.649 131.482 16.5057 
79 C 1 126.743 131.417 15.5267 
74 C 1 125.282 131.645 10.0126 
122 C 1 125.93 131.367 17.9416 
46 C 1 127.068 131.361 11.7049 
75 C 1 125.662 131.679 11.3806 
338 C 1 120.09 124.14 18.5592 
339 C 1 120.456 123.178 19.5515 
343 C 1 119.902 124.157 23.7263 
395 C 1 121.444 122.165 19.1861 
396 C 1 122.263 121.581 20.1831 
397 C 1 120.221 123.464 20.9317 
398 C 1 120.813 122.628 21.94 
399 C 1 120.573 122.922 23.3402 
400 C 1 121.336 122.175 24.3284 
401 C 1 119.857 124.557 25.1015 
402 C 1 120.239 123.609 26.1539 
451 C 1 124.003 120.852 18.4762 
452 C 1 123.556 120.964 19.8401 
454 C 1 121.92 121.726 21.5796 
455 C 1 122.797 121.165 22.5419 
456 C 1 122.454 121.332 23.9539 
457 C 1 123.42 121.069 25.0255 
458 C 1 121.092 122.542 25.7736 
459 C 1 121.83 121.767 26.7618 
510 C 1 124.177 120.788 22.2697 
514 C 1 123.093 121.205 26.407 
3825 O 3 124.044 123.707 24.7344 
3807 O 3 124.439 123.652 22.0403 
3786 O 3 124.679 123.463 19.3546 
3809 H 2 124.524 123.21 22.8851 
3826 H 2 124.813 124.278 24.7435 
341 C 1 119.754 124.77 21.3232 
3827 H 2 123.846 123.557 25.6586 
453 C 1 124.556 120.84 20.8776 
3806 H 2 123.235 124.473 21.3315 
3815 H 2 122.819 124.553 23.8246 
3804 O 3 122.577 124.91 20.7913 
3805 H 2 122.724 124.567 19.9097 
3787 H 2 124.765 123.282 20.2907 
3808 H 2 124.924 124.47 22.1476 
512 C 1 124.816 120.839 24.697 
3814 H 2 121.818 124.877 22.7358 
3783 O 3 122.627 124.669 18.1282 
3788 H 2 125.558 123.724 19.079 
3868 H 2 125.304 123.695 26.4107 
3824 H 2 127.318 123.863 20.1888 
3823 H 2 127.258 124.72 21.4348 
3869 H 2 126.499 123.613 25.4848 
3847 H 2 127.053 124.693 23.7991 
3867 O 3 126.248 123.852 26.3768 
3846 O 3 126.554 123.886 23.6711 
3848 H 2 126.936 123.49 22.8876 
3822 O 3 126.806 124.007 20.9846 
507 C 1 126.426 120.981 19.1247 
508 C 1 126.013 120.89 20.5174 
509 C 1 127.001 121.079 21.5101 
511 C 1 125.247 120.827 23.3239 
513 C 1 125.865 120.929 25.6977 
559 C 1 127.751 121.443 18.7491 
560 C 1 128.579 121.983 19.8066 
561 C 1 128.26 121.709 21.1889 
562 C 1 129.07 122.404 22.2019 
563 C 1 126.638 121.018 22.8794 
564 C 1 127.571 121.377 23.9033 
565 C 1 127.233 121.27 25.2695 
566 C 1 128.162 121.676 26.3373 
604 C 1 129.543 123.048 19.5253 
605 C 1 130.058 123.913 20.5398 
606 C 1 129.899 123.52 21.9064 
607 C 1 130.307 124.557 22.826 
608 C 1 128.743 122.155 23.5861 
609 C 1 129.503 122.877 24.5892 
610 C 1 129.2 122.627 25.9793 
643 C 1 130.192 124.164 24.2051 
645 C 1 130.365 124.726 26.6257 
611 C 1 129.773 123.491 26.9401 
506 C 1 125.41 120.804 18.1297 
3792 O 3 127.035 124.323 18.2124 
558 C 1 129.736 123.374 18.1459 
342 C 1 119.583 125.185 22.7379 
3850 H 2 122.148 125.71 25.1544 
3813 O 3 122.302 125.272 23.4605 
3849 O 3 122.345 125.662 26.0898 
3851 H 2 122.652 126.54 26.3155 
283 C 1 119.711 125.459 18.9711 
173 C 1 122.581 131.134 19.5765 
175 C 1 122.117 130.615 21.9455 
226 C 1 120.035 127.887 18.3088 
227 C 1 121.446 130.347 19.1947 
228 C 1 120.727 129.502 20.1872 
229 C 1 121.007 129.691 21.5452 
230 C 1 120.427 128.904 22.5662 
231 C 1 122.385 130.857 23.3304 
232 C 1 121.553 130.271 24.3508 
233 C 1 121.86 130.514 25.7333 
234 C 1 121.061 129.83 26.7736 
284 C 1 120.112 128.228 19.7074 
285 C 1 119.756 127.254 20.711 
286 C 1 119.879 127.665 22.1195 
287 C 1 119.621 126.591 23.1317 
288 C 1 120.681 129.215 23.9296 
289 C 1 120.189 128.36 24.9423 
290 C 1 120.232 128.694 26.3464 
340 C 1 119.656 125.853 20.3039 
344 C 1 119.722 126.972 24.496 
345 C 1 119.66 125.948 25.4986 
3810 O 3 122.641 127.276 21.7691 
3812 H 2 122.549 126.324 21.7875 
3834 O 3 123.054 127.666 24.3557 
3836 H 2 122.506 127.241 23.6954 
3789 O 3 122.607 127.248 19.1053 
3811 H 2 122.363 127.527 20.8882 
3835 H 2 123.819 127.097 24.4358 
174 C 1 123.018 131.231 20.965 
346 C 1 119.68 126.358 26.8946 
3854 H 2 122.288 128.174 26.6719 
3776 H 2 124.801 125.224 19.5525 
3817 H 2 123.765 128.928 23.2257 
3799 H 2 123.83 128.294 19.7426 
3802 H 2 124.271 126.832 22.3618 
3790 H 2 122.472 126.305 19.2001 
3818 H 2 124.258 129.176 21.8161 
3798 O 3 124.479 128.945 20.0093 
3816 O 3 124.561 128.944 22.694 
3844 H 2 124.357 128.937 24.8739 
3853 H 2 123.794 128.313 26.6012 
3801 O 3 124.99 126.202 22.4067 
3775 H 2 124.972 126.207 20.6907 
3843 O 3 124.938 129.029 25.6297 
179 C 1 123.066 131.187 26.0699 
3791 H 2 122.259 127.454 18.2376 
3770 H 2 124.146 129.012 18.1546 
3841 H 2 128.21 125.293 25.7172 
3793 H 2 127.162 125.267 18.3051 
82 C 1 127.329 131.057 18.3206 
3800 H 2 125.301 128.631 19.6321 
3840 O 3 127.872 125.737 24.9392 
3830 H 2 127.975 126.133 23.2706 
3828 O 3 127.813 126.071 22.3293 
3833 H 2 125.126 125.985 25.9424 
3774 O 3 125.223 126.052 19.7801 
3782 H 2 128.448 126.342 20.4385 
644 C 1 130.508 125.119 25.2276 
641 C 1 130.515 125.269 20.1717 
3803 H 2 125.013 125.928 23.3237 
3829 H 2 127.262 126.829 22.1306 
3781 H 2 127.042 126.278 19.8822 
3780 O 3 127.959 126.349 19.6162 
3842 H 2 127.727 126.64 25.2222 
3832 H 2 126.066 126.413 24.8351 
3831 O 3 125.174 126.103 24.9936 
3845 H 2 125.773 128.666 25.3364 
3821 H 2 125.935 128.481 23.5467 
3795 O 3 126.867 128.347 21.2317 
3796 H 2 127.053 128.348 20.2927 
33 C 1 130.219 128.118 19.3949 
35 C 1 130.531 126.935 23.5453 
53 C 1 129.5 129.357 19.0229 
54 C 1 128.821 130.109 20.0529 
55 C 1 130.342 127.763 20.7696 
56 C 1 129.973 128.718 21.8068 
57 C 1 130.052 128.269 23.2167 
58 C 1 129.535 129.152 24.1689 
60 C 1 130.235 127.543 25.8876 
83 C 1 127.643 130.903 19.71 
85 C 1 129.182 129.89 21.3965 
86 C 1 128.392 130.563 22.3856 
87 C 1 128.612 130.193 23.7649 
88 C 1 127.795 130.827 24.7927 
89 C 1 129.664 128.83 25.5596 
90 C 1 129.08 129.671 26.5865 
130 C 1 128.082 130.616 26.2076 
642 C 1 130.565 125.925 22.4723 
3819 O 3 126.763 128.131 23.8772 
3820 H 2 127.423 128.464 23.2696 
3837 O 3 127.209 127.727 26.5367 
34 C 1 130.515 126.306 21.1313 
603 C 1 130.526 125.698 18.7442 
32 C 1 130.513 127.129 18.4154 
59 C 1 130.461 126.502 24.8904 
3797 H 2 126.027 128.799 21.3108 
3759 O 3 126.597 128.398 18.5842 
3839 H 2 126.721 126.955 26.8254 
3755 H 2 125.006 126.544 18.094 
3760 H 2 127.416 127.904 18.55 
177 C 1 123.651 131.466 23.7362 
172 C 1 123.546 131.52 18.5285 
178 C 1 124.083 131.559 25.0925 
125 C 1 124.36 131.51 21.3207 
176 C 1 124.75 131.514 22.7016 
123 C 1 124.956 131.498 18.9529 
126 C 1 127.158 131.296 22.0552 
84 C 1 126.746 131.426 20.6857 
128 C 1 126.505 131.46 24.4556 
127 C 1 126.141 131.581 23.0503 
180 C 1 125.877 131.636 26.8269 
129 C 1 125.459 131.655 25.4407 
124 C 1 125.366 131.625 20.3107 
3860 H 2 123.198 124.562 27.0803 
3859 H 2 123.41 123.659 28.2774 
3858 O 3 123.595 123.73 27.3409 
403 C 1 120.162 124.033 27.5064 
404 C 1 120.588 123.039 28.5012 
406 C 1 119.752 124.623 30.2408 
408 C 1 119.926 123.977 32.6443 
460 C 1 121.474 121.92 28.179 
461 C 1 122.38 121.347 29.1541 
462 C 1 120.342 123.341 29.8745 
463 C 1 120.911 122.446 30.9238 
464 C 1 120.645 122.738 32.3193 
465 C 1 121.409 121.971 33.2908 
466 C 1 119.914 124.391 34.0804 
467 C 1 120.411 123.416 35.064 
515 C 1 124.074 120.83 27.4092 
516 C 1 123.71 120.839 28.7676 
518 C 1 122.017 121.51 30.5427 
519 C 1 122.887 121.033 31.5751 
520 C 1 122.548 121.145 32.9357 
521 C 1 123.575 120.906 33.9122 
522 C 1 121.146 122.24 34.6822 
523 C 1 121.986 121.585 35.7001 
575 C 1 123.211 120.978 35.3131 
571 C 1 124.261 120.739 31.1854 
3926 H 2 124.639 123.56 34.4878 
3876 O 3 123.643 123.62 30.0215 
3877 H 2 123.335 123.068 30.7401 
3891 O 3 123.444 123.852 32.678 
3915 O 3 123.171 123.977 35.5111 
3892 H 2 123.138 123.954 33.5792 
3878 H 2 123.109 124.412 30.0818 
517 C 1 124.675 120.715 29.7988 
573 C 1 124.961 120.801 33.5769 
3893 H 2 123.324 124.717 32.2853 
407 C 1 119.617 124.917 31.6314 
3916 H 2 122.928 124.89 35.3534 
3905 H 2 125.022 123.858 32.1232 
567 C 1 125.495 120.847 27.1037 
3884 H 2 125.135 123.728 29.2895 
3924 O 3 125.589 123.467 34.4236 
3925 H 2 125.73 123.004 33.5979 
3904 H 2 125.798 123.322 30.9388 
3903 O 3 125.911 123.663 31.8258 
3883 H 2 126.027 123.412 28.1074 
3882 O 3 126.051 123.732 29.0092 
3856 H 2 128.084 124.906 28.3881 
568 C 1 126.469 121.028 28.1165 
569 C 1 126.079 120.885 29.4709 
570 C 1 127.07 121.236 30.4541 
572 C 1 125.342 120.719 32.1693 
574 C 1 125.975 120.784 34.547 
612 C 1 127.76 121.572 27.7128 
613 C 1 128.627 122.13 28.7225 
614 C 1 128.314 121.916 30.1427 
615 C 1 129.134 122.532 31.1163 
616 C 1 126.733 121.036 31.8034 
617 C 1 127.655 121.47 32.8103 
618 C 1 127.282 121.258 34.2248 
619 C 1 128.194 121.761 35.2028 
647 C 1 129.582 123.143 28.358 
648 C 1 130.205 124.024 29.3812 
649 C 1 130.105 123.636 30.7743 
650 C 1 130.418 124.642 31.7781 
651 C 1 128.845 122.251 32.4648 
652 C 1 129.592 122.996 33.4599 
653 C 1 129.307 122.622 34.8236 
678 C 1 130.323 124.189 33.1112 
654 C 1 129.928 123.508 35.7968 
3899 H 2 127.568 124.506 34.1533 
3898 H 2 126.884 124.703 32.8174 
3897 O 3 127.654 124.969 33.3198 
3871 H 2 127.739 124.696 31.3447 
3945 O 3 127.537 124.825 35.9818 
620 C 1 125.689 120.711 35.9517 
3857 H 2 127.03 124.93 27.3015 
3872 H 2 126.895 124.791 30.0919 
680 C 1 130.386 124.851 35.5002 
3947 H 2 126.586 124.804 35.8745 
3852 O 3 123.092 127.931 27.1296 
3952 H 2 121.968 126.54 35.8991 
347 C 1 119.662 125.342 27.8796 
3941 H 2 122.803 129.026 35.4804 
3865 H 2 122.065 125.68 27.8983 
405 C 1 119.476 125.657 29.2814 
3887 H 2 122.39 126.784 31.622 
3928 H 2 122.061 126.049 33.2259 
3864 O 3 122.333 125.69 28.8171 
3866 H 2 122.796 126.521 28.9229 
3885 O 3 122.257 125.866 31.384 
3927 O 3 122.422 126.079 34.1119 
236 C 1 122.493 130.84 28.4737 
238 C 1 121.902 130.469 30.8593 
291 C 1 119.809 127.748 27.3428 
292 C 1 121.361 130.092 28.114 
293 C 1 120.673 129.287 29.0934 
294 C 1 120.884 129.561 30.4822 
295 C 1 120.295 128.684 31.4382 
296 C 1 122.189 130.804 32.2324 
297 C 1 121.294 130.186 33.2463 
298 C 1 121.6 130.535 34.6429 
299 C 1 120.821 129.792 35.6855 
348 C 1 119.928 128.09 28.7563 
349 C 1 119.58 127.081 29.6914 
350 C 1 119.7 127.403 31.0664 
351 C 1 119.563 126.342 32.0486 
352 C 1 120.414 129.057 32.8623 
353 C 1 119.979 128.133 33.8952 
354 C 1 120.157 128.544 35.2886 
409 C 1 119.67 126.742 33.4754 
410 C 1 119.62 125.724 34.474 
411 C 1 119.657 126.084 35.8537 
3886 H 2 122.036 125.889 30.4529 
3929 H 2 122.568 127.01 34.2799 
3909 O 3 123.25 128.117 32.353 
3879 O 3 123.195 128.103 29.7349 
237 C 1 122.83 131.06 29.8377 
3939 O 3 123.377 128.355 35.1122 
3881 H 2 124.005 127.67 30.0032 
3880 H 2 123.431 128.585 28.9422 
3911 H 2 124.008 127.558 32.5284 
3910 H 2 123.427 128.498 31.4931 
3890 H 2 124.93 125.872 31.1009 
3940 H 2 123.845 128.8 34.4061 
3934 H 2 124.42 126.97 35.4532 
3875 H 2 124.335 126.874 27.5201 
3907 H 2 124.947 125.96 33.7184 
3933 O 3 124.971 126.187 35.4452 
3873 O 3 124.931 126.138 27.6571 
242 C 1 122.804 131.234 34.9979 
3838 H 2 128.01 127.715 27.0605 
3889 H 2 125.993 126.576 30.2845 
3870 O 3 127.717 125.095 30.4748 
3855 O 3 127.732 125.454 27.6868 
3863 H 2 125.506 129.089 27.329 
3908 H 2 125.723 126.787 32.7148 
3888 O 3 125.122 126.185 30.2169 
3923 H 2 127.713 126.359 34.3569 
3874 H 2 125.003 126.061 28.6085 
3902 H 2 127.6 126.496 31.4393 
3906 O 3 125.004 126.159 32.7837 
3914 H 2 126.3 128.579 31.1431 
3862 H 2 126.192 128.436 28.5097 
97 C 1 130.392 126.623 33.7531 
93 C 1 130.188 127.815 29.6403 
679 C 1 130.376 125.213 34.1164 
96 C 1 129.445 129.336 33.0905 
3861 O 3 125.426 128.959 28.2739 
676 C 1 130.581 125.416 29.0463 
98 C 1 130.229 127.682 34.7831 
138 C 1 129.623 128.937 34.4684 
135 C 1 128.213 130.695 31.3218 
132 C 1 127.555 131.04 28.5629 
134 C 1 129.023 129.95 30.3608 
64 C 1 130.433 127.104 32.4526 
137 C 1 127.657 130.994 33.6875 
136 C 1 128.509 130.42 32.6787 
3922 H 2 126.673 127.026 35.2317 
3913 H 2 125.381 129.042 30.0327 
3921 O 3 127.427 127.216 34.6737 
188 C 1 127.993 130.702 35.096 
139 C 1 129.044 129.842 35.4293 
646 C 1 130.509 125.765 27.6508 
3932 H 2 126.502 128.796 33.6217 
3930 O 3 125.55 128.871 33.6932 
3895 H 2 127.623 126.813 29.1249 
3901 H 2 127.722 127.145 32.8018 
3894 O 3 127.34 127.698 29.3559 
3912 O 3 125.439 128.965 30.9851 
61 C 1 130.388 127.176 27.2416 
3931 H 2 125.246 128.937 32.788 
3900 O 3 127.391 127.299 31.917 
3896 H 2 127.953 127.976 30.0365 
677 C 1 130.595 126.075 31.4355 
63 C 1 130.619 126.489 30.0248 
91 C 1 129.378 129.428 27.9724 
62 C 1 130.06 128.167 28.2525 
92 C 1 128.733 130.225 28.9567 
95 C 1 130.045 128.442 32.0635 
94 C 1 129.811 128.763 30.7033 
3961 H 2 125.575 128.641 35.3712 
131 C 1 127.24 131.208 27.1988 
235 C 1 123.451 131.348 27.4594 
183 C 1 124.157 131.502 30.1733 
240 C 1 123.499 131.279 32.5694 
241 C 1 123.865 131.395 33.9491 
239 C 1 124.504 131.532 31.5873 
181 C 1 124.822 131.61 27.8281 
186 C 1 126.286 131.511 33.3329 
185 C 1 125.896 131.558 31.937 
184 C 1 126.912 131.32 30.9389 
182 C 1 125.201 131.634 29.1934 
133 C 1 126.572 131.368 29.5634 
187 C 1 125.234 131.531 34.3484 
243 C 1 125.62 131.471 35.7586 
468 C 1 120.248 123.71 36.4704 
469 C 1 120.758 122.807 37.4161 
471 C 1 119.959 124.399 39.2332 
472 C 1 119.813 124.714 40.6676 
473 C 1 120.176 123.692 41.6104 
524 C 1 121.667 121.8 37.0575 
525 C 1 122.562 121.185 38.0674 
526 C 1 120.571 123.125 38.7742 
527 C 1 121.163 122.212 39.806 
528 C 1 120.865 122.481 41.2226 
529 C 1 121.649 121.717 42.222 
530 C 1 119.976 123.982 43.0535 
531 C 1 120.403 123.077 44.0388 
576 C 1 124.21 120.701 36.2646 
577 C 1 123.885 120.753 37.6943 
579 C 1 122.243 121.342 39.4504 
580 C 1 123.206 120.853 40.4224 
581 C 1 122.818 120.948 41.8048 
582 C 1 123.869 120.585 42.84 
583 C 1 121.358 122.002 43.6124 
584 C 1 122.192 121.378 44.5999 
628 C 1 123.457 120.72 44.2062 
3990 O 3 124.668 123.252 42.4857 
3989 H 2 123.407 123.815 41.5446 
3937 H 2 123.746 124.182 38.7015 
3988 H 2 122.857 123.728 40.1368 
3970 H 2 124.88 122.966 38.7084 
624 C 1 124.63 120.608 40.0629 
3969 O 3 124.864 123.302 39.6048 
3936 O 3 122.998 124.221 38.1055 
3987 O 3 122.831 124.267 40.9279 
3992 H 2 124.765 122.804 43.3259 
4012 H 2 123.262 123.942 43.9626 
4020 O 3 124.478 123.323 45.0474 
3917 H 2 122.724 123.748 36.3261 
578 C 1 124.963 120.58 38.6955 
4013 H 2 121.889 124.557 44.134 
4011 O 3 122.753 124.727 43.7588 
3920 H 2 124.417 123.617 36.8674 
3991 H 2 125.559 123.51 42.2473 
3971 H 2 125.629 122.906 40.0227 
3918 O 3 125.366 123.579 36.9812 
621 C 1 126.678 120.931 36.9825 
622 C 1 126.331 120.877 38.348 
623 C 1 127.328 121.168 39.3773 
625 C 1 125.599 120.683 41.1134 
626 C 1 125.278 120.597 42.4372 
627 C 1 126.354 120.655 43.4285 
655 C 1 127.951 121.533 36.5576 
656 C 1 128.816 122.072 37.5654 
657 C 1 128.56 121.791 38.996 
658 C 1 129.31 122.468 40.009 
659 C 1 126.95 121.015 40.7722 
660 C 1 127.962 121.291 41.7078 
661 C 1 127.709 121.1 43.0855 
662 C 1 128.572 121.682 44.1106 
663 C 1 125.979 120.561 44.86 
682 C 1 129.779 123.128 37.1806 
683 C 1 130.266 124.022 38.213 
684 C 1 130.078 123.693 39.5878 
686 C 1 129.092 122.143 41.3664 
687 C 1 129.73 123.009 42.3437 
688 C 1 129.493 122.761 43.7357 
689 C 1 129.928 123.625 44.743 
703 C 1 130.241 124.355 42.039 
3957 O 3 127.334 124.313 38.6697 
3984 O 3 127.071 124.014 41.2393 
4002 O 3 126.838 123.983 43.8806 
4003 H 2 126.354 124.768 43.6254 
4004 H 2 127.06 123.558 43.0521 
3985 H 2 127.438 124.864 41.4795 
3959 H 2 126.567 124.303 38.0975 
685 C 1 130.311 124.688 40.6119 
3986 H 2 127.19 123.96 40.291 
705 C 1 130.498 124.953 44.4171 
3946 H 2 127.676 124.685 36.9184 
4021 H 2 125.129 124.022 44.9826 
3919 H 2 125.698 123.283 36.1335 
3953 H 2 122.79 127.131 37.0238 
412 C 1 119.815 125.042 36.833 
3938 H 2 123.015 125.113 37.7576 
470 C 1 119.721 125.427 38.2443 
475 C 1 119.715 125.34 43.423 
301 C 1 122.24 130.863 37.3705 
302 C 1 122.637 130.959 38.7828 
303 C 1 121.804 130.346 39.7812 
307 C 1 122.736 130.98 43.8917 
356 C 1 121.125 129.996 37.0636 
357 C 1 120.599 129.063 37.9836 
358 C 1 120.87 129.357 39.3932 
359 C 1 120.387 128.433 40.3951 
360 C 1 122.107 130.54 41.1316 
361 C 1 121.358 129.836 42.1616 
362 C 1 121.622 130.128 43.5373 
363 C 1 120.902 129.377 44.5155 
413 C 1 119.888 127.843 37.6893 
414 C 1 119.699 126.775 38.6414 
415 C 1 119.828 127.118 40.0488 
416 C 1 119.617 126.101 41.0119 
417 C 1 120.487 128.755 41.7971 
418 C 1 120.002 127.826 42.8069 
419 C 1 120.144 128.223 44.1967 
474 C 1 119.703 126.458 42.3849 
476 C 1 119.633 125.761 44.8169 
3966 O 3 122.405 126.414 39.5074 
3967 H 2 122.05 126.201 38.6445 
3968 H 2 122.51 125.566 39.9398 
3993 O 3 122.565 126.772 42.1746 
3994 H 2 122.148 126.738 41.3141 
3995 H 2 122.651 125.855 42.4364 
4035 O 3 122.566 127.238 44.8483 
4037 H 2 122.353 127.183 43.9168 
3951 O 3 122.391 126.313 36.7271 
3964 H 2 123.37 127.688 40.0706 
3943 H 2 123.449 128.946 38.5691 
4007 H 2 123.637 127.76 42.8534 
355 C 1 119.802 127.515 36.3064 
3965 H 2 123.638 128.498 41.321 
3942 O 3 123.673 128.412 37.8072 
3963 O 3 123.886 128.424 40.3995 
4006 H 2 123.944 128.608 44.0693 
3955 H 2 124.626 125.003 40.5631 
3944 H 2 124.203 127.699 38.1623 
4005 O 3 124.139 128.524 43.1359 
3997 H 2 124.398 125.725 43.929 
3956 H 2 124.979 126.068 41.5793 
3935 H 2 124.573 125.607 36.0939 
3962 H 2 124.866 128.74 36.7052 
305 C 1 123.37 131.223 41.5874 