ITEM: TIMESTEP
534934
ITEM: NUMBER OF ATOMS
5816
ITEM: BOX BOUNDS pp pp pp
0.0000000000000000e+00 1.5000000000000000e+02
0.0000000000000000e+00 1.5000000000000000e+02
0.0000000000000000e+00 2.5886599999999999e+02
ITEM: ATOMS id element type x y z 
126 C 1 71.649 68.591 5.895 
127 C 1 72.068 68.389 7.235 
128 C 1 73.389 67.951 7.503 
138 C 1 72.068 68.389 3.484 
139 C 1 72.499 68.215 4.824 
140 C 1 73.845 67.862 5.092 
141 C 1 74.306 67.802 6.431 
148 C 1 72.499 68.215 1.072 
149 C 1 72.94 68.068 2.412 
150 C 1 74.306 67.802 2.68 
151 C 1 74.77 67.773 4.02 
161 C 1 73.389 67.951 0 
162 C 1 74.77 67.773 0.268 
142 C 1 75.698 67.802 6.699 
143 C 1 76.159 67.862 8.039 
152 C 1 76.159 67.862 4.288 
153 C 1 76.615 67.951 5.628 
154 C 1 77.936 68.389 5.895 
155 C 1 78.355 68.591 7.235 
163 C 1 75.234 67.773 1.608 
164 C 1 76.615 67.951 1.876 
165 C 1 77.064 68.068 3.216 
166 C 1 78.355 68.591 3.484 
175 C 1 77.505 68.215 0.804 
98 C 1 67.888 73.631 5.895 
99 C 1 67.991 73.178 7.235 
100 C 1 68.472 71.872 7.503 
109 C 1 67.769 74.553 3.216 
110 C 1 67.991 73.178 3.484 
111 C 1 68.123 72.733 4.824 
112 C 1 68.687 71.46 5.092 
119 C 1 67.813 74.09 0.804 
120 C 1 68.123 72.733 1.072 
121 C 1 68.284 72.297 2.412 
133 C 1 68.472 71.872 0 
113 C 1 68.927 71.063 6.431 
114 C 1 69.795 69.975 6.699 
115 C 1 70.129 69.651 8.039 
122 C 1 68.927 71.063 2.68 
123 C 1 69.193 70.682 4.02 
124 C 1 70.129 69.651 4.288 
125 C 1 70.483 69.35 5.628 
134 C 1 69.193 70.682 0.268 
135 C 1 69.483 70.319 1.608 
136 C 1 70.483 69.35 1.876 
137 C 1 70.855 69.072 3.216 
147 C 1 71.245 68.819 0.804 
156 C 1 79.521 69.35 7.503 
167 C 1 78.759 68.819 4.824 
168 C 1 79.875 69.651 5.092 
169 C 1 80.209 69.975 6.431 
170 C 1 81.077 71.063 6.699 
176 C 1 78.759 68.819 1.072 
177 C 1 79.149 69.072 2.412 
178 C 1 80.209 69.975 2.68 
179 C 1 80.521 70.319 4.02 
185 C 1 79.521 69.35 0 
186 C 1 80.521 70.319 0.268 
187 C 1 80.811 70.682 1.608 
171 C 1 81.317 71.46 8.039 
180 C 1 81.317 71.46 4.288 
181 C 1 81.532 71.872 5.628 
182 C 1 82.013 73.178 5.895 
183 C 1 82.116 73.631 7.235 
188 C 1 81.532 71.872 1.876 
189 C 1 81.72 72.297 3.216 
190 C 1 82.116 73.631 3.484 
191 C 1 82.191 74.09 4.824 
193 C 1 81.881 72.733 0.804 
194 C 1 82.191 74.09 1.072 
195 C 1 82.235 74.553 2.412 
72 C 1 68.472 78.162 7.503 
84 C 1 68.284 77.737 5.092 
85 C 1 68.123 77.301 6.431 
86 C 1 67.813 75.944 6.699 
87 C 1 67.769 75.481 8.039 
93 C 1 68.687 78.574 2.412 
94 C 1 68.123 77.301 2.68 
95 C 1 67.991 76.856 4.02 
96 C 1 67.769 75.481 4.288 
97 C 1 67.754 75.017 5.628 
105 C 1 68.472 78.162 0 
106 C 1 67.991 76.856 0.268 
107 C 1 67.888 76.403 1.608 
108 C 1 67.754 75.017 1.876 
58 C 1 71.245 81.215 6.699 
59 C 1 70.855 80.962 8.039 
68 C 1 70.855 80.962 4.288 
69 C 1 70.483 80.684 5.628 
70 C 1 69.483 79.715 5.895 
71 C 1 69.193 79.352 7.235 
80 C 1 70.483 80.684 1.876 
81 C 1 70.129 80.383 3.216 
82 C 1 69.193 79.352 3.484 
83 C 1 68.927 78.971 4.824 
91 C 1 69.795 80.059 0.804 
92 C 1 68.927 78.971 1.072 
14 C 1 80.811 79.352 5.895 
15 C 1 80.521 79.715 7.235 
16 C 1 79.521 80.684 7.503 
26 C 1 80.521 79.715 3.484 
27 C 1 80.209 80.059 4.824 
28 C 1 79.149 80.962 5.092 
29 C 1 78.759 81.215 6.431 
35 C 1 81.077 78.971 0.804 
36 C 1 80.209 80.059 1.072 
37 C 1 79.875 80.383 2.412 
38 C 1 78.759 81.215 2.68 
49 C 1 79.521 80.684 0 
5 C 1 82.191 75.944 6.431 
6 C 1 81.881 77.301 6.699 
7 C 1 81.72 77.737 8.039 
11 C 1 82.116 76.403 4.02 
12 C 1 81.72 77.737 4.288 
13 C 1 81.532 78.162 5.628 
21 C 1 82.25 75.017 0 
22 C 1 82.116 76.403 0.268 
23 C 1 82.013 76.856 1.608 
24 C 1 81.532 78.162 1.876 
25 C 1 81.317 78.574 3.216 
184 C 1 82.25 75.017 7.503 
192 C 1 82.235 75.481 5.092 
196 C 1 82.191 75.944 2.68 
43 C 1 74.77 82.261 7.235 
44 C 1 73.389 82.083 7.503 
54 C 1 74.77 82.261 3.484 
55 C 1 74.306 82.232 4.824 
56 C 1 72.94 81.966 5.092 
57 C 1 72.499 81.819 6.431 
64 C 1 74.306 82.232 1.072 
65 C 1 73.845 82.172 2.412 
66 C 1 72.499 81.819 2.68 
67 C 1 72.068 81.645 4.02 
77 C 1 73.389 82.083 0 
78 C 1 72.068 81.645 0.268 
79 C 1 71.649 81.443 1.608 
30 C 1 77.505 81.819 6.699 
31 C 1 77.064 81.966 8.039 
39 C 1 78.355 81.443 4.02 
40 C 1 77.064 81.966 4.288 
41 C 1 76.615 82.083 5.628 
42 C 1 75.234 82.261 5.895 
50 C 1 78.355 81.443 0.268 
51 C 1 77.936 81.645 1.608 
52 C 1 76.615 82.083 1.876 
53 C 1 76.159 82.172 3.216 
63 C 1 75.698 82.232 0.804 
117 C 1 71.649 68.591 9.647 
118 C 1 72.94 68.068 9.915 
129 C 1 73.845 67.862 8.843 
334 C 1 72.068 68.389 14.739 
335 C 1 72.499 68.215 16.079 
344 C 1 72.499 68.215 12.327 
345 C 1 72.94 68.068 13.667 
346 C 1 74.306 67.802 13.935 
347 C 1 74.77 67.773 15.275 
357 C 1 73.389 67.951 11.255 
358 C 1 74.77 67.773 11.523 
130 C 1 75.234 67.773 9.111 
131 C 1 75.698 67.802 10.451 
132 C 1 77.064 68.068 10.719 
144 C 1 77.505 68.215 8.307 
145 C 1 77.936 68.389 9.647 
348 C 1 76.159 67.862 15.543 
359 C 1 75.234 67.773 12.863 
360 C 1 76.615 67.951 13.131 
361 C 1 77.064 68.068 14.471 
362 C 1 78.355 68.591 14.739 
371 C 1 77.505 68.215 12.059 
76 C 1 67.769 74.553 10.719 
88 C 1 67.813 74.09 8.307 
89 C 1 67.888 73.631 9.647 
90 C 1 68.284 72.297 9.915 
101 C 1 68.687 71.46 8.843 
305 C 1 67.769 74.553 14.471 
306 C 1 67.991 73.178 14.739 
307 C 1 68.123 72.733 16.079 
315 C 1 67.813 74.09 12.059 
316 C 1 68.123 72.733 12.327 
317 C 1 68.284 72.297 13.667 
329 C 1 68.472 71.872 11.255 
102 C 1 69.483 70.319 9.111 
103 C 1 69.795 69.975 10.451 
104 C 1 70.855 69.072 10.719 
116 C 1 71.245 68.819 8.307 
318 C 1 68.927 71.063 13.935 
319 C 1 69.193 70.682 15.275 
320 C 1 70.129 69.651 15.543 
330 C 1 69.193 70.682 11.523 
331 C 1 69.483 70.319 12.863 
332 C 1 70.483 69.35 13.131 
333 C 1 70.855 69.072 14.471 
343 C 1 71.245 68.819 12.059 
4574 H 2 74.4666 70.4895 11.9428 
4573 H 2 74.4015 71.0392 13.3519 
4572 O 3 74.8179 71.1825 12.502 
4576 H 2 73.7798 71.8229 15.7373 
4575 O 3 73.138 71.717 15.035 
4603 H 2 73.21 74.6315 12.8723 
4602 O 3 74.1515 74.4588 12.8757 
4604 H 2 74.2204 73.5044 12.8992 
4577 H 2 72.2922 71.862 15.459 
146 C 1 79.149 69.072 9.915 
157 C 1 79.875 69.651 8.843 
158 C 1 80.811 70.682 9.111 
159 C 1 81.077 71.063 10.451 
363 C 1 78.759 68.819 16.079 
372 C 1 78.759 68.819 12.327 
373 C 1 79.149 69.072 13.667 
374 C 1 80.209 69.975 13.935 
375 C 1 80.521 70.319 15.275 
381 C 1 79.521 69.35 11.255 
382 C 1 80.521 70.319 11.523 
383 C 1 80.811 70.682 12.863 
160 C 1 81.72 72.297 10.719 
172 C 1 81.881 72.733 8.307 
173 C 1 82.013 73.178 9.647 
174 C 1 82.235 74.553 9.915 
376 C 1 81.317 71.46 15.543 
384 C 1 81.532 71.872 13.131 
385 C 1 81.72 72.297 14.471 
386 C 1 82.116 73.631 14.739 
387 C 1 82.191 74.09 16.079 
389 C 1 81.881 72.733 12.059 
390 C 1 82.191 74.09 12.327 
391 C 1 82.235 74.553 13.667 
62 C 1 68.687 78.574 9.915 
73 C 1 68.284 77.737 8.843 
74 C 1 67.888 76.403 9.111 
75 C 1 67.813 75.944 10.451 
289 C 1 68.687 78.574 13.667 
290 C 1 68.123 77.301 13.935 
291 C 1 67.991 76.856 15.275 
292 C 1 67.769 75.481 15.543 
301 C 1 68.472 78.162 11.255 
302 C 1 67.991 76.856 11.523 
303 C 1 67.888 76.403 12.863 
304 C 1 67.754 75.017 13.131 
4793 H 2 71.5946 75.3318 15.9977 
4647 O 3 72.4308 76.2451 10.127 
4649 H 2 73.3304 76.3334 9.8124 
4648 H 2 71.9788 75.768 9.43108 
4758 O 3 71.8681 76.508 13.0423 
4759 H 2 72.6723 77.0074 13.1844 
4760 H 2 71.7709 76.4754 12.0906 
47 C 1 71.245 81.215 10.451 
48 C 1 70.129 80.383 10.719 
60 C 1 69.795 80.059 8.307 
61 C 1 69.483 79.715 9.647 
264 C 1 70.855 80.962 15.543 
276 C 1 70.483 80.684 13.131 
277 C 1 70.129 80.383 14.471 
278 C 1 69.193 79.352 14.739 
279 C 1 68.927 78.971 16.079 
287 C 1 69.795 80.059 12.059 
288 C 1 68.927 78.971 12.327 
4630 H 2 74.9729 75.0766 14.8249 
5669 H 2 74.5531 78.0732 13.1528 
5667 O 3 74.0777 78.832 13.4911 
5668 H 2 74.0423 79.4413 12.7537 
4629 O 3 74.9415 75.3404 15.7446 
5732 H 2 77.6241 76.856 9.55725 
5731 H 2 78.9911 76.5029 9.01097 
5730 O 3 78.488 77.2284 9.38073 
5726 H 2 77.9618 78.3077 15.3619 
5724 O 3 78.2995 77.4453 15.1201 
5725 H 2 78.2757 76.9415 15.9337 
4523 H 2 75.6071 78.7061 15.5916 
4631 H 2 75.8122 75.1327 16.0837 
4547 H 2 76.514 76.7181 12.6796 
8 C 1 81.077 78.971 8.307 
9 C 1 80.811 79.352 9.647 
10 C 1 79.875 80.383 9.915 
17 C 1 79.149 80.962 8.843 
222 C 1 80.521 79.715 14.739 
223 C 1 80.209 80.059 16.079 
231 C 1 81.077 78.971 12.059 
232 C 1 80.209 80.059 12.327 
233 C 1 79.875 80.383 13.667 
234 C 1 78.759 81.215 13.935 
245 C 1 79.521 80.684 11.255 
4545 O 3 75.8782 76.6874 11.9648 
4546 H 2 75.2038 76.0801 12.2693 
392 C 1 82.191 75.944 13.935 
220 C 1 81.532 78.162 13.131 
221 C 1 81.317 78.574 14.471 
1 C 1 82.235 75.481 8.843 
2 C 1 82.013 76.856 9.111 
3 C 1 81.881 77.301 10.451 
4 C 1 81.317 78.574 10.719 
207 C 1 82.116 76.403 15.275 
208 C 1 81.72 77.737 15.543 
217 C 1 82.25 75.017 11.255 
218 C 1 82.116 76.403 11.523 
219 C 1 82.013 76.856 12.863 
275 C 1 71.649 81.443 12.863 
263 C 1 72.068 81.645 15.275 
273 C 1 73.389 82.083 11.255 
250 C 1 74.77 82.261 14.739 
46 C 1 71.649 81.443 9.111 
260 C 1 74.306 82.232 12.327 
45 C 1 72.94 81.966 8.843 
34 C 1 73.845 82.172 9.915 
261 C 1 73.845 82.172 13.667 
251 C 1 74.306 82.232 16.079 
274 C 1 72.068 81.645 11.523 
262 C 1 72.499 81.819 13.935 
249 C 1 76.159 82.172 14.471 
236 C 1 77.064 81.966 15.543 
19 C 1 77.505 81.819 10.451 
20 C 1 76.159 82.172 10.719 
32 C 1 75.698 82.232 8.307 
246 C 1 78.355 81.443 11.523 
18 C 1 77.936 81.645 9.111 
259 C 1 75.698 82.232 12.059 
33 C 1 75.234 82.261 9.647 
247 C 1 77.936 81.645 12.863 
235 C 1 78.355 81.443 15.275 
248 C 1 76.615 82.083 13.131 
313 C 1 71.649 68.591 20.902 
314 C 1 72.94 68.068 21.17 
322 C 1 71.649 68.591 17.151 
323 C 1 72.068 68.389 18.49 
324 C 1 73.389 67.951 18.758 
325 C 1 73.845 67.862 20.098 
336 C 1 73.845 67.862 16.347 
337 C 1 74.306 67.802 17.686 
540 C 1 72.499 68.215 23.582 
553 C 1 73.389 67.951 22.51 
554 C 1 74.77 67.773 22.778 
326 C 1 75.234 67.773 20.366 
327 C 1 75.698 67.802 21.706 
328 C 1 77.064 68.068 21.974 
338 C 1 75.698 67.802 17.954 
339 C 1 76.159 67.862 19.294 
340 C 1 77.505 68.215 19.562 
341 C 1 77.936 68.389 20.902 
349 C 1 76.615 67.951 16.883 
350 C 1 77.936 68.389 17.151 
351 C 1 78.355 68.591 18.49 
555 C 1 75.234 67.773 24.118 
567 C 1 77.505 68.215 23.314 
272 C 1 67.769 74.553 21.974 
284 C 1 67.813 74.09 19.562 
285 C 1 67.888 73.631 20.902 
286 C 1 68.284 72.297 21.17 
294 C 1 67.888 73.631 17.151 
295 C 1 67.991 73.178 18.49 
296 C 1 68.472 71.872 18.758 
297 C 1 68.687 71.46 20.098 
308 C 1 68.687 71.46 16.347 
511 C 1 67.813 74.09 23.314 
512 C 1 68.123 72.733 23.582 
525 C 1 68.472 71.872 22.51 
298 C 1 69.483 70.319 20.366 
299 C 1 69.795 69.975 21.706 
300 C 1 70.855 69.072 21.974 
309 C 1 68.927 71.063 17.686 
310 C 1 69.795 69.975 17.954 
311 C 1 70.129 69.651 19.294 
312 C 1 71.245 68.819 19.562 
321 C 1 70.483 69.35 16.883 
526 C 1 69.193 70.682 22.778 
527 C 1 69.483 70.319 24.118 
539 C 1 71.245 68.819 23.314 
5733 O 3 72.2464 72.4849 22.8058 
5734 H 2 73.0952 72.5159 22.3644 
5735 H 2 72.1297 71.5635 23.0371 
4616 H 2 74.0241 73.5868 20.801 
4614 O 3 73.6276 72.7921 20.4439 
4615 H 2 72.809 73.0899 20.0469 
5800 H 2 73.6246 71.8648 18.5239 
4677 O 3 71.5703 73.6049 18.9259 
4679 H 2 70.6758 73.9453 18.942 
4678 H 2 71.9239 73.8989 18.0864 
5801 H 2 74.4866 70.9834 17.6453 
5799 O 3 74.0011 71.8083 17.6456 
5598 O 3 74.7391 72.8602 23.8097 
4579 H 2 71.3112 74.5233 21.5574 
4565 H 2 71.6711 74.0414 23.9691 
342 C 1 79.149 69.072 21.17 
352 C 1 79.521 69.35 18.758 
353 C 1 79.875 69.651 20.098 
354 C 1 80.811 70.682 20.366 
355 C 1 81.077 71.063 21.706 
364 C 1 79.875 69.651 16.347 
365 C 1 80.209 69.975 17.686 
366 C 1 81.077 71.063 17.954 
568 C 1 78.759 68.819 23.582 
577 C 1 79.521 69.35 22.51 
578 C 1 80.521 70.319 22.778 
579 C 1 80.811 70.682 24.118 
4526 H 2 76.7489 74.7571 21.93 
4524 O 3 77.0673 74.918 22.8182 
5663 H 2 77.6624 72.6868 19.5294 
5662 H 2 78.0541 71.9934 18.2419 
5661 O 3 77.9319 72.8609 18.6276 
4525 H 2 77.9842 74.6436 22.7978 
5599 H 2 75.5292 73.3671 23.9971 
4772 H 2 76.0011 72.0517 21.0652 
4770 O 3 76.8627 71.6348 21.0671 
4771 H 2 76.875 71.1129 21.8694 
356 C 1 81.72 72.297 21.974 
367 C 1 81.317 71.46 19.294 
368 C 1 81.881 72.733 19.562 
369 C 1 82.013 73.178 20.902 
370 C 1 82.235 74.553 21.17 
377 C 1 81.532 71.872 16.883 
378 C 1 82.013 73.178 17.151 
379 C 1 82.116 73.631 18.49 
585 C 1 81.881 72.733 23.314 
586 C 1 82.191 74.09 23.582 
258 C 1 68.687 78.574 21.17 
268 C 1 68.472 78.162 18.758 
269 C 1 68.284 77.737 20.098 
270 C 1 67.888 76.403 20.366 
271 C 1 67.813 75.944 21.706 
280 C 1 68.284 77.737 16.347 
281 C 1 68.123 77.301 17.686 
282 C 1 67.813 75.944 17.954 
283 C 1 67.769 75.481 19.294 
293 C 1 67.754 75.017 16.883 
497 C 1 68.472 78.162 22.51 
498 C 1 67.991 76.856 22.778 
499 C 1 67.888 76.403 24.118 
4578 O 3 70.8195 75.335 21.4326 
4580 H 2 71.2614 75.7739 20.7057 
4675 H 2 74.5641 75.8413 20.3891 
4626 O 3 72.5215 76.4991 19.5064 
4628 H 2 72.9534 77.1975 19.0144 
243 C 1 71.245 81.215 21.706 
244 C 1 70.129 80.383 21.974 
254 C 1 71.245 81.215 17.954 
255 C 1 70.855 80.962 19.294 
256 C 1 69.795 80.059 19.562 
257 C 1 69.483 79.715 20.902 
265 C 1 70.483 80.684 16.883 
266 C 1 69.483 79.715 17.151 
267 C 1 69.193 79.352 18.49 
483 C 1 69.795 80.059 23.314 
484 C 1 68.927 78.971 23.582 
4627 H 2 72.1755 75.9112 18.835 
4663 H 2 72.3361 77.594 21.3016 
4664 H 2 72.1571 78.7663 22.2426 
4662 O 3 72.8146 78.3123 21.7154 
4792 H 2 73.0595 75.2153 16.3614 
4696 H 2 74.7984 78.3932 21.5509 
4564 H 2 71.1133 75.4083 23.6339 
4832 H 2 74.4372 75.5814 24.1996 
4611 O 3 73.1043 78.6782 17.7139 
4613 H 2 72.1833 78.9101 17.5946 
4612 H 2 73.4893 78.7683 16.8422 
4791 O 3 72.1792 75.1129 16.7232 
4676 H 2 75.7965 75.7451 19.5151 
4521 O 3 76.1536 78.7306 16.3771 
4522 H 2 76.1528 77.8288 16.6982 
4674 O 3 75.3801 75.3525 20.2823 
5776 H 2 77.6199 75.0424 17.7547 
5775 O 3 77.5262 75.9323 17.4148 
5777 H 2 77.679 76.4961 18.173 
204 C 1 81.077 78.971 19.562 
205 C 1 80.811 79.352 20.902 
206 C 1 79.875 80.383 21.17 
210 C 1 80.811 79.352 17.151 
211 C 1 80.521 79.715 18.49 
212 C 1 79.521 80.684 18.758 
213 C 1 79.149 80.962 20.098 
224 C 1 79.149 80.962 16.347 
225 C 1 78.759 81.215 17.686 
427 C 1 81.077 78.971 23.314 
428 C 1 80.209 80.059 23.582 
441 C 1 79.521 80.684 22.51 
4686 O 3 77.122 77.7449 19.4227 
4688 H 2 76.8451 77.8891 20.3276 
4697 H 2 75.5644 77.8115 22.72 
4695 O 3 75.6868 78.2348 21.8703 
4687 H 2 76.8741 78.5482 18.965 
4830 O 3 75.0723 76.2973 24.2207 
4831 H 2 75.9131 75.8775 24.0391 
197 C 1 82.235 75.481 20.098 
198 C 1 82.013 76.856 20.366 
199 C 1 81.881 77.301 21.706 
200 C 1 81.317 78.574 21.974 
201 C 1 82.191 75.944 17.686 
202 C 1 81.881 77.301 17.954 
203 C 1 81.72 77.737 19.294 
209 C 1 81.532 78.162 16.883 
380 C 1 82.25 75.017 18.758 
388 C 1 82.235 75.481 16.347 
413 C 1 82.25 75.017 22.51 
414 C 1 82.116 76.403 22.778 
415 C 1 82.013 76.856 24.118 
230 C 1 73.845 82.172 21.17 
239 C 1 74.77 82.261 18.49 
240 C 1 73.389 82.083 18.758 
241 C 1 72.94 81.966 20.098 
242 C 1 71.649 81.443 20.366 
252 C 1 72.94 81.966 16.347 
253 C 1 72.499 81.819 17.686 
456 C 1 74.306 82.232 23.582 
469 C 1 73.389 82.083 22.51 
470 C 1 72.068 81.645 22.778 
471 C 1 71.649 81.443 24.118 
214 C 1 77.936 81.645 20.366 
215 C 1 77.505 81.819 21.706 
216 C 1 76.159 82.172 21.974 
226 C 1 77.505 81.819 17.954 
227 C 1 77.064 81.966 19.294 
228 C 1 75.698 82.232 19.562 
229 C 1 75.234 82.261 20.902 
237 C 1 76.615 82.083 16.883 
238 C 1 75.234 82.261 17.151 
442 C 1 78.355 81.443 22.778 
443 C 1 77.936 81.645 24.118 
455 C 1 75.698 82.232 23.314 
509 C 1 71.649 68.591 32.157 
518 C 1 71.649 68.591 28.406 
519 C 1 72.068 68.389 29.745 
520 C 1 73.389 67.951 30.013 
521 C 1 73.845 67.862 31.353 
530 C 1 72.068 68.389 25.994 
531 C 1 72.499 68.215 27.334 
532 C 1 73.845 67.862 27.602 
533 C 1 74.306 67.802 28.941 
541 C 1 72.94 68.068 24.922 
542 C 1 74.306 67.802 25.19 
543 C 1 74.77 67.773 26.53 
522 C 1 75.234 67.773 31.621 
534 C 1 75.698 67.802 29.209 
535 C 1 76.159 67.862 30.549 
536 C 1 77.505 68.215 30.817 
537 C 1 77.936 68.389 32.157 
544 C 1 76.159 67.862 26.798 
545 C 1 76.615 67.951 28.138 
546 C 1 77.936 68.389 28.406 
547 C 1 78.355 68.591 29.745 
556 C 1 76.615 67.951 24.386 
557 C 1 77.064 68.068 25.726 
558 C 1 78.355 68.591 25.994 
480 C 1 67.813 74.09 30.817 
481 C 1 67.888 73.631 32.157 
490 C 1 67.888 73.631 28.406 
491 C 1 67.991 73.178 29.745 
492 C 1 68.472 71.872 30.013 
493 C 1 68.687 71.46 31.353 
501 C 1 67.769 74.553 25.726 
502 C 1 67.991 73.178 25.994 
503 C 1 68.123 72.733 27.334 
504 C 1 68.687 71.46 27.602 
513 C 1 68.284 72.297 24.922 
5600 H 2 74.4435 72.5511 24.6661 
4556 H 2 70.3471 74.6284 27.209 
4554 O 3 71.2699 74.5505 26.9668 
494 C 1 69.483 70.319 31.621 
505 C 1 68.927 71.063 28.941 
506 C 1 69.795 69.975 29.209 
507 C 1 70.129 69.651 30.549 
508 C 1 71.245 68.819 30.817 
514 C 1 68.927 71.063 25.19 
515 C 1 69.193 70.682 26.53 
516 C 1 70.129 69.651 26.798 
517 C 1 70.483 69.35 28.138 
528 C 1 70.483 69.35 24.386 
529 C 1 70.855 69.072 25.726 
4532 H 2 72.1264 73.5089 28.707 
4700 H 2 71.7495 73.4888 31.0812 
4698 O 3 71.3557 73.3362 31.9402 
4555 H 2 71.2658 74.5281 26.0099 
4610 H 2 74.9977 70.6706 28.1341 
4530 O 3 72.5692 73.3673 29.5437 
4608 O 3 74.5573 71.4082 28.5563 
4531 H 2 73.2797 72.7593 29.3394 
4563 O 3 71.5327 74.9137 24.3381 
4727 H 2 73.2427 70.9567 31.1629 
4726 H 2 72.5251 71.7344 32.2456 
4725 O 3 73.399 71.4808 31.9486 
4593 O 3 78.4373 73.3587 26.2383 
5569 H 2 77.4503 73.3053 29.4327 
4609 H 2 75.2561 72.04 28.7255 
548 C 1 79.521 69.35 30.013 
549 C 1 79.875 69.651 31.353 
550 C 1 80.811 70.682 31.621 
559 C 1 78.759 68.819 27.334 
560 C 1 79.875 69.651 27.602 
561 C 1 80.209 69.975 28.941 
562 C 1 81.077 71.063 29.209 
569 C 1 79.149 69.072 24.922 
570 C 1 80.209 69.975 25.19 
571 C 1 80.521 70.319 26.53 
4594 H 2 79.3591 73.1974 26.4396 
5568 O 3 76.9036 72.9456 28.7342 
5570 H 2 77.3919 73.1252 27.9307 
4595 H 2 78.291 74.2689 26.4958 
4722 O 3 79.1271 74.9908 28.8345 
5027 H 2 75.139 74.4027 32.3579 
563 C 1 81.317 71.46 30.549 
564 C 1 81.881 72.733 30.817 
565 C 1 82.013 73.178 32.157 
572 C 1 81.317 71.46 26.798 
573 C 1 81.532 71.872 28.138 
574 C 1 82.013 73.178 28.406 
575 C 1 82.116 73.631 29.745 
580 C 1 81.532 71.872 24.386 
581 C 1 81.72 72.297 25.726 
582 C 1 82.116 73.631 25.994 
583 C 1 82.191 74.09 27.334 
587 C 1 82.235 74.553 24.922 
464 C 1 68.472 78.162 30.013 
465 C 1 68.284 77.737 31.353 
466 C 1 67.888 76.403 31.621 
476 C 1 68.284 77.737 27.602 
477 C 1 68.123 77.301 28.941 
478 C 1 67.813 75.944 29.209 
479 C 1 67.769 75.481 30.549 
485 C 1 68.687 78.574 24.922 
486 C 1 68.123 77.301 25.19 
487 C 1 67.991 76.856 26.53 
488 C 1 67.769 75.481 26.798 
489 C 1 67.754 75.017 28.138 
500 C 1 67.754 75.017 24.386 
4666 H 2 73.2845 76.4764 30.3164 
4665 O 3 73.3233 76.8794 31.1838 
4586 H 2 74.4015 75.5416 29.2058 
450 C 1 71.245 81.215 29.209 
451 C 1 70.855 80.962 30.549 
452 C 1 69.795 80.059 30.817 
453 C 1 69.483 79.715 32.157 
460 C 1 70.855 80.962 26.798 
461 C 1 70.483 80.684 28.138 
462 C 1 69.483 79.715 28.406 
463 C 1 69.193 79.352 29.745 
472 C 1 70.483 80.684 24.386 
473 C 1 70.129 80.383 25.726 
474 C 1 69.193 79.352 25.994 
475 C 1 68.927 78.971 27.334 
4585 H 2 73.3281 75.409 28.1465 
4584 O 3 74.0185 75.9957 28.4553 
4667 H 2 73.9559 76.3481 31.6672 
4528 H 2 74.6338 78.4283 30.9983 
4723 H 2 78.5955 75.3587 29.5404 
4527 O 3 75.5183 78.7576 31.1577 
4529 H 2 75.7376 79.2493 30.3662 
4640 H 2 75.3498 76.9991 25.8079 
4639 H 2 75.1051 76.713 27.2743 
4535 H 2 77.6151 76.7185 26.576 
400 C 1 81.077 78.971 30.817 
401 C 1 80.811 79.352 32.157 
406 C 1 80.811 79.352 28.406 
407 C 1 80.521 79.715 29.745 
408 C 1 79.521 80.684 30.013 
409 C 1 79.149 80.962 31.353 
418 C 1 80.521 79.715 25.994 
419 C 1 80.209 80.059 27.334 
420 C 1 79.149 80.962 27.602 
421 C 1 78.759 81.215 28.941 
429 C 1 79.875 80.383 24.922 
430 C 1 78.759 81.215 25.19 
4534 H 2 79.018 77.0959 26.1504 
4533 O 3 78.5066 76.375 26.5179 
4638 O 3 75.6635 77.22 26.6848 
4751 H 2 79.2543 75.8176 31.608 
4724 H 2 79.3041 75.7324 28.2558 
4749 O 3 78.4337 75.3389 31.4915 
4750 H 2 77.7511 75.996 31.6277 
393 C 1 82.235 75.481 31.353 
394 C 1 82.013 76.856 31.621 
397 C 1 82.191 75.944 28.941 
398 C 1 81.881 77.301 29.209 
399 C 1 81.72 77.737 30.549 
403 C 1 82.116 76.403 26.53 
404 C 1 81.72 77.737 26.798 
405 C 1 81.532 78.162 28.138 
416 C 1 81.532 78.162 24.386 
417 C 1 81.317 78.574 25.726 
576 C 1 82.25 75.017 30.013 
584 C 1 82.235 75.481 27.602 
588 C 1 82.191 75.944 25.19 
459 C 1 72.068 81.645 26.53 
457 C 1 73.845 82.172 24.922 
458 C 1 72.499 81.819 25.19 
446 C 1 74.77 82.261 25.994 
447 C 1 74.306 82.232 27.334 
437 C 1 72.94 81.966 31.353 
448 C 1 72.94 81.966 27.602 
438 C 1 71.649 81.443 31.621 
435 C 1 74.77 82.261 29.745 
449 C 1 72.499 81.819 28.941 
436 C 1 73.389 82.083 30.013 
445 C 1 76.159 82.172 25.726 
423 C 1 77.064 81.966 30.549 
424 C 1 75.698 82.232 30.817 
433 C 1 76.615 82.083 28.138 
432 C 1 77.064 81.966 26.798 
434 C 1 75.234 82.261 28.406 
444 C 1 76.615 82.083 24.386 
425 C 1 75.234 82.261 32.157 
431 C 1 78.355 81.443 26.53 
410 C 1 77.936 81.645 31.621 
422 C 1 77.505 81.819 29.209 
510 C 1 72.94 68.068 32.425 
714 C 1 71.649 68.591 39.661 
726 C 1 72.068 68.389 37.249 
727 C 1 72.499 68.215 38.589 
728 C 1 73.845 67.862 38.857 
729 C 1 74.306 67.802 40.197 
736 C 1 72.499 68.215 34.837 
737 C 1 72.94 68.068 36.177 
738 C 1 74.306 67.802 36.445 
739 C 1 74.77 67.773 37.785 
749 C 1 73.389 67.951 33.765 
750 C 1 74.77 67.773 34.033 
523 C 1 75.698 67.802 32.961 
524 C 1 77.064 68.068 33.229 
740 C 1 76.159 67.862 38.053 
741 C 1 76.615 67.951 39.393 
742 C 1 77.936 68.389 39.661 
751 C 1 75.234 67.773 35.373 
752 C 1 76.615 67.951 35.641 
753 C 1 77.064 68.068 36.981 
754 C 1 78.355 68.591 37.249 
763 C 1 77.505 68.215 34.569 
468 C 1 67.769 74.553 33.229 
482 C 1 68.284 72.297 32.425 
686 C 1 67.888 73.631 39.661 
697 C 1 67.769 74.553 36.981 
698 C 1 67.991 73.178 37.249 
699 C 1 68.123 72.733 38.589 
700 C 1 68.687 71.46 38.857 
707 C 1 67.813 74.09 34.569 
708 C 1 68.123 72.733 34.837 
709 C 1 68.284 72.297 36.177 
721 C 1 68.472 71.872 33.765 
495 C 1 69.795 69.975 32.961 
496 C 1 70.855 69.072 33.229 
701 C 1 68.927 71.063 40.197 
710 C 1 68.927 71.063 36.445 
711 C 1 69.193 70.682 37.785 
712 C 1 70.129 69.651 38.053 
713 C 1 70.483 69.35 39.393 
722 C 1 69.193 70.682 34.033 
723 C 1 69.483 70.319 35.373 
724 C 1 70.483 69.35 35.641 
725 C 1 70.855 69.072 36.981 
735 C 1 71.245 68.819 34.569 
4896 O 3 71.7287 73.6795 38.4035 
4898 H 2 71.6765 73.1722 37.5935 
4657 H 2 73.2957 72.897 36.0562 
4656 O 3 72.7644 73.3256 35.3852 
4870 H 2 74.9652 71.6134 33.0658 
4658 H 2 72.7981 72.7305 34.6362 
4810 H 2 74.5799 70.6366 36.4728 
4811 H 2 73.5528 70.3497 37.5473 
4809 O 3 74.1254 71.0398 37.2124 
4843 H 2 74.8448 74.686 37.88 
4897 H 2 72.2371 74.4557 38.1683 
4519 H 2 72.8774 73.2701 40.3223 
4699 H 2 71.4262 74.1784 32.3896 
4807 H 2 77.535 74.0802 32.9321 
4808 H 2 77.6023 73.7918 34.4168 
4806 O 3 77.4187 73.3788 33.573 
538 C 1 79.149 69.072 32.425 
551 C 1 81.077 71.063 32.961 
755 C 1 78.759 68.819 38.589 
756 C 1 79.875 69.651 38.857 
757 C 1 80.209 69.975 40.197 
764 C 1 78.759 68.819 34.837 
765 C 1 79.149 69.072 36.177 
766 C 1 80.209 69.975 36.445 
767 C 1 80.521 70.319 37.785 
773 C 1 79.521 69.35 33.765 
774 C 1 80.521 70.319 34.033 
775 C 1 80.811 70.682 35.373 
4869 O 3 75.3572 71.3569 33.9005 
4871 H 2 76.2696 71.6385 33.8337 
4844 H 2 75.6145 73.3836 37.9372 
4842 O 3 75.509 74.1781 37.414 
4561 H 2 76.4684 71.8882 39.9282 
4560 O 3 76.5107 71.8307 38.9737 
4562 H 2 75.9669 71.074 38.7545 
552 C 1 81.72 72.297 33.229 
566 C 1 82.235 74.553 32.425 
768 C 1 81.317 71.46 38.053 
769 C 1 81.532 71.872 39.393 
770 C 1 82.013 73.178 39.661 
776 C 1 81.532 71.872 35.641 
777 C 1 81.72 72.297 36.981 
778 C 1 82.116 73.631 37.249 
779 C 1 82.191 74.09 38.589 
781 C 1 81.881 72.733 34.569 
782 C 1 82.191 74.09 34.837 
783 C 1 82.235 74.553 36.177 
454 C 1 68.687 78.574 32.425 
467 C 1 67.813 75.944 32.961 
672 C 1 68.284 77.737 38.857 
673 C 1 68.123 77.301 40.197 
681 C 1 68.687 78.574 36.177 
682 C 1 68.123 77.301 36.445 
683 C 1 67.991 76.856 37.785 
684 C 1 67.769 75.481 38.053 
685 C 1 67.754 75.017 39.393 
693 C 1 68.472 78.162 33.765 
694 C 1 67.991 76.856 34.033 
695 C 1 67.888 76.403 35.373 
696 C 1 67.754 75.017 35.641 
4755 O 3 73.943 76.4606 37.9102 
4757 H 2 73.6599 76.9455 38.6855 
4756 H 2 73.4461 76.8484 37.1899 
4721 H 2 71.9564 76.0798 32.8289 
4720 H 2 72.5358 75.4233 34.0639 
439 C 1 71.245 81.215 32.961 
440 C 1 70.129 80.383 33.229 
656 C 1 70.855 80.962 38.053 
657 C 1 70.483 80.684 39.393 
658 C 1 69.483 79.715 39.661 
668 C 1 70.483 80.684 35.641 
669 C 1 70.129 80.383 36.981 
670 C 1 69.193 79.352 37.249 
671 C 1 68.927 78.971 38.589 
679 C 1 69.795 80.059 34.569 
680 C 1 68.927 78.971 34.837 
4515 O 3 72.2367 77.2156 35.7727 
4516 H 2 71.8426 76.7756 35.0195 
4719 O 3 71.8049 75.3661 33.4485 
4517 H 2 72.8429 77.8499 35.3899 
4707 O 3 74.8752 78.3677 33.9782 
4587 O 3 73.843 79.0275 40.2954 
4588 H 2 73.2157 79.7419 40.1851 
5025 O 3 75.4413 75.3091 32.4164 
4927 H 2 76.2718 75.0497 38.8881 
4928 H 2 76.6307 76.4312 39.3928 
4926 O 3 76.9392 75.5251 39.383 
5026 H 2 75.7382 75.4051 33.3213 
4781 H 2 75.1765 75.7718 35.5447 
4779 O 3 75.9654 76.1166 35.1265 
4780 H 2 76.6852 75.6472 35.5481 
4709 H 2 75.176 78.63 33.1082 
4708 H 2 75.5329 77.7414 34.2807 
402 C 1 79.875 80.383 32.425 
602 C 1 80.811 79.352 39.661 
614 C 1 80.521 79.715 37.249 
615 C 1 80.209 80.059 38.589 
616 C 1 79.149 80.962 38.857 
617 C 1 78.759 81.215 40.197 
623 C 1 81.077 78.971 34.569 
624 C 1 80.209 80.059 34.837 
625 C 1 79.875 80.383 36.177 
626 C 1 78.759 81.215 36.445 
637 C 1 79.521 80.684 33.765 
395 C 1 81.881 77.301 32.961 
396 C 1 81.317 78.574 33.229 
593 C 1 82.191 75.944 40.197 
599 C 1 82.116 76.403 37.785 
600 C 1 81.72 77.737 38.053 
601 C 1 81.532 78.162 39.393 
609 C 1 82.25 75.017 33.765 
610 C 1 82.116 76.403 34.033 
611 C 1 82.013 76.856 35.373 
612 C 1 81.532 78.162 35.641 
613 C 1 81.317 78.574 36.981 
780 C 1 82.235 75.481 38.857 
784 C 1 82.191 75.944 36.445 
426 C 1 73.845 82.172 32.425 
642 C 1 74.77 82.261 37.249 
643 C 1 74.306 82.232 38.589 
644 C 1 72.94 81.966 38.857 
645 C 1 72.499 81.819 40.197 
652 C 1 74.306 82.232 34.837 
653 C 1 73.845 82.172 36.177 
654 C 1 72.499 81.819 36.445 
655 C 1 72.068 81.645 37.785 
665 C 1 73.389 82.083 33.765 
666 C 1 72.068 81.645 34.033 
667 C 1 71.649 81.443 35.373 
411 C 1 77.505 81.819 32.961 
412 C 1 76.159 82.172 33.229 
627 C 1 78.355 81.443 37.785 
628 C 1 77.064 81.966 38.053 
629 C 1 76.615 82.083 39.393 
630 C 1 75.234 82.261 39.661 
638 C 1 78.355 81.443 34.033 
639 C 1 77.936 81.645 35.373 
640 C 1 76.615 82.083 35.641 
641 C 1 76.159 82.172 36.981 
651 C 1 75.698 82.232 34.569 
705 C 1 71.649 68.591 43.412 
706 C 1 72.94 68.068 43.68 
715 C 1 72.068 68.389 41 
716 C 1 73.389 67.951 41.268 
717 C 1 73.845 67.862 42.608 
922 C 1 72.068 68.389 48.504 
932 C 1 72.499 68.215 46.092 
933 C 1 72.94 68.068 47.432 
934 C 1 74.306 67.802 47.7 
945 C 1 73.389 67.951 45.02 
946 C 1 74.77 67.773 45.288 
718 C 1 75.234 67.773 42.876 
719 C 1 75.698 67.802 44.216 
720 C 1 77.064 68.068 44.484 
730 C 1 75.698 67.802 40.464 
731 C 1 76.159 67.862 41.804 
732 C 1 77.505 68.215 42.072 
733 C 1 77.936 68.389 43.412 
743 C 1 78.355 68.591 41 
947 C 1 75.234 67.773 46.628 
948 C 1 76.615 67.951 46.896 
949 C 1 77.064 68.068 48.236 
950 C 1 78.355 68.591 48.504 
959 C 1 77.505 68.215 45.824 
664 C 1 67.769 74.553 44.484 
676 C 1 67.813 74.09 42.072 
677 C 1 67.888 73.631 43.412 
678 C 1 68.284 72.297 43.68 
687 C 1 67.991 73.178 41 
688 C 1 68.472 71.872 41.268 
689 C 1 68.687 71.46 42.608 
893 C 1 67.769 74.553 48.236 
894 C 1 67.991 73.178 48.504 
903 C 1 67.813 74.09 45.824 
904 C 1 68.123 72.733 46.092 
905 C 1 68.284 72.297 47.432 
917 C 1 68.472 71.872 45.02 
4601 H 2 74.8873 73.0316 45.1994 
690 C 1 69.483 70.319 42.876 
691 C 1 69.795 69.975 44.216 
692 C 1 70.855 69.072 44.484 
702 C 1 69.795 69.975 40.464 
703 C 1 70.129 69.651 41.804 
704 C 1 71.245 68.819 42.072 
906 C 1 68.927 71.063 47.7 
918 C 1 69.193 70.682 45.288 
919 C 1 69.483 70.319 46.628 
920 C 1 70.483 69.35 46.896 
921 C 1 70.855 69.072 48.236 
931 C 1 71.245 68.819 45.824 
4542 O 3 71.7207 73.6133 46.5605 
4518 O 3 73.1709 73.7822 41.0758 
4520 H 2 72.39 74.2553 41.3633 
4543 H 2 72.6451 73.4757 46.3535 
4544 H 2 71.6774 73.556 47.515 
5792 H 2 74.7285 72.7865 41.5765 
4599 O 3 74.4926 73.7341 45.7161 
4653 O 3 78.5636 74.2859 46.3554 
4694 H 2 77.5986 73.1317 45.2009 
4600 H 2 75.2372 74.196 46.1015 
5756 H 2 77.9939 74.7393 41.1657 
4693 H 2 77.8698 72.089 44.1373 
4692 O 3 77.1621 72.4867 44.6446 
734 C 1 79.149 69.072 43.68 
744 C 1 79.521 69.35 41.268 
745 C 1 79.875 69.651 42.608 
746 C 1 80.811 70.682 42.876 
747 C 1 81.077 71.063 44.216 
758 C 1 81.077 71.063 40.464 
960 C 1 78.759 68.819 46.092 
961 C 1 79.149 69.072 47.432 
962 C 1 80.209 69.975 47.7 
969 C 1 79.521 69.35 45.02 
970 C 1 80.521 70.319 45.288 
971 C 1 80.811 70.682 46.628 
5790 O 3 75.4165 72.1235 41.6344 
5791 H 2 75.8039 72.2546 42.4998 
5754 O 3 78.8555 74.3825 41.3818 
5755 H 2 79.3368 74.4 40.5546 
4654 H 2 78.4978 74.5816 47.2634 
748 C 1 81.72 72.297 44.484 
759 C 1 81.317 71.46 41.804 
760 C 1 81.881 72.733 42.072 
761 C 1 82.013 73.178 43.412 
762 C 1 82.235 74.553 43.68 
771 C 1 82.116 73.631 41 
972 C 1 81.532 71.872 46.896 
973 C 1 81.72 72.297 48.236 
974 C 1 82.116 73.631 48.504 
977 C 1 81.881 72.733 45.824 
978 C 1 82.191 74.09 46.092 
979 C 1 82.235 74.553 47.432 
650 C 1 68.687 78.574 43.68 
660 C 1 68.472 78.162 41.268 
661 C 1 68.284 77.737 42.608 
662 C 1 67.888 76.403 42.876 
663 C 1 67.813 75.944 44.216 
674 C 1 67.813 75.944 40.464 
675 C 1 67.769 75.481 41.804 
877 C 1 68.687 78.574 47.432 