ITEM: TIMESTEP
535504
ITEM: NUMBER OF ATOMS
5816
ITEM: BOX BOUNDS pp pp pp
0.0000000000000000e+00 1.5000000000000000e+02
0.0000000000000000e+00 1.5000000000000000e+02
0.0000000000000000e+00 2.5929559999999998e+02
ITEM: ATOMS id element type x y z 
126 C 1 71.647 68.574 6.378 
127 C 1 72.066 68.372 7.718 
128 C 1 73.387 67.934 7.986 
138 C 1 72.066 68.372 3.967 
139 C 1 72.497 68.198 5.307 
140 C 1 73.843 67.845 5.575 
141 C 1 74.304 67.785 6.914 
148 C 1 72.497 68.198 1.555 
149 C 1 72.938 68.051 2.895 
150 C 1 74.304 67.785 3.163 
151 C 1 74.768 67.756 4.503 
161 C 1 73.387 67.934 0.483 
162 C 1 74.768 67.756 0.751 
142 C 1 75.696 67.785 7.182 
152 C 1 76.157 67.845 4.771 
153 C 1 76.613 67.934 6.111 
154 C 1 77.934 68.372 6.378 
155 C 1 78.353 68.574 7.718 
163 C 1 75.232 67.756 2.091 
164 C 1 76.613 67.934 2.359 
165 C 1 77.062 68.051 3.699 
166 C 1 78.353 68.574 3.967 
175 C 1 77.503 68.198 1.287 
98 C 1 67.886 73.614 6.378 
99 C 1 67.989 73.161 7.718 
100 C 1 68.47 71.855 7.986 
109 C 1 67.767 74.536 3.699 
110 C 1 67.989 73.161 3.967 
111 C 1 68.121 72.716 5.307 
112 C 1 68.685 71.443 5.575 
119 C 1 67.811 74.073 1.287 
120 C 1 68.121 72.716 1.555 
121 C 1 68.282 72.28 2.895 
133 C 1 68.47 71.855 0.483 
113 C 1 68.925 71.046 6.914 
114 C 1 69.793 69.958 7.182 
122 C 1 68.925 71.046 3.163 
123 C 1 69.191 70.665 4.503 
124 C 1 70.127 69.634 4.771 
125 C 1 70.481 69.333 6.111 
134 C 1 69.191 70.665 0.751 
135 C 1 69.481 70.302 2.091 
136 C 1 70.481 69.333 2.359 
137 C 1 70.853 69.055 3.699 
147 C 1 71.243 68.802 1.287 
156 C 1 79.519 69.333 7.986 
167 C 1 78.757 68.802 5.307 
168 C 1 79.873 69.634 5.575 
169 C 1 80.207 69.958 6.914 
170 C 1 81.075 71.046 7.182 
176 C 1 78.757 68.802 1.555 
177 C 1 79.147 69.055 2.895 
178 C 1 80.207 69.958 3.163 
179 C 1 80.519 70.302 4.503 
185 C 1 79.519 69.333 0.483 
186 C 1 80.519 70.302 0.751 
187 C 1 80.809 70.665 2.091 
180 C 1 81.315 71.443 4.771 
181 C 1 81.53 71.855 6.111 
182 C 1 82.011 73.161 6.378 
183 C 1 82.114 73.614 7.718 
188 C 1 81.53 71.855 2.359 
189 C 1 81.718 72.28 3.699 
190 C 1 82.114 73.614 3.967 
191 C 1 82.189 74.073 5.307 
193 C 1 81.879 72.716 1.287 
194 C 1 82.189 74.073 1.555 
195 C 1 82.233 74.536 2.895 
72 C 1 68.47 78.145 7.986 
84 C 1 68.282 77.72 5.575 
85 C 1 68.121 77.284 6.914 
86 C 1 67.811 75.927 7.182 
93 C 1 68.685 78.557 2.895 
94 C 1 68.121 77.284 3.163 
95 C 1 67.989 76.839 4.503 
96 C 1 67.767 75.464 4.771 
97 C 1 67.752 75 6.111 
105 C 1 68.47 78.145 0.483 
106 C 1 67.989 76.839 0.751 
107 C 1 67.886 76.386 2.091 
108 C 1 67.752 75 2.359 
58 C 1 71.243 81.198 7.182 
68 C 1 70.853 80.945 4.771 
69 C 1 70.481 80.667 6.111 
70 C 1 69.481 79.698 6.378 
71 C 1 69.191 79.335 7.718 
80 C 1 70.481 80.667 2.359 
81 C 1 70.127 80.366 3.699 
82 C 1 69.191 79.335 3.967 
83 C 1 68.925 78.954 5.307 
91 C 1 69.793 80.042 1.287 
92 C 1 68.925 78.954 1.555 
14 C 1 80.809 79.335 6.378 
15 C 1 80.519 79.698 7.718 
16 C 1 79.519 80.667 7.986 
26 C 1 80.519 79.698 3.967 
27 C 1 80.207 80.042 5.307 
28 C 1 79.147 80.945 5.575 
29 C 1 78.757 81.198 6.914 
35 C 1 81.075 78.954 1.287 
36 C 1 80.207 80.042 1.555 
37 C 1 79.873 80.366 2.895 
38 C 1 78.757 81.198 3.163 
49 C 1 79.519 80.667 0.483 
5 C 1 82.189 75.927 6.914 
6 C 1 81.879 77.284 7.182 
11 C 1 82.114 76.386 4.503 
12 C 1 81.718 77.72 4.771 
13 C 1 81.53 78.145 6.111 
21 C 1 82.248 75 0.483 
22 C 1 82.114 76.386 0.751 
23 C 1 82.011 76.839 2.091 
24 C 1 81.53 78.145 2.359 
25 C 1 81.315 78.557 3.699 
184 C 1 82.248 75 7.986 
192 C 1 82.233 75.464 5.575 
196 C 1 82.189 75.927 3.163 
43 C 1 74.768 82.244 7.718 
44 C 1 73.387 82.066 7.986 
54 C 1 74.768 82.244 3.967 
55 C 1 74.304 82.215 5.307 
56 C 1 72.938 81.949 5.575 
57 C 1 72.497 81.802 6.914 
64 C 1 74.304 82.215 1.555 
65 C 1 73.843 82.155 2.895 
66 C 1 72.497 81.802 3.163 
67 C 1 72.066 81.628 4.503 
77 C 1 73.387 82.066 0.483 
78 C 1 72.066 81.628 0.751 
79 C 1 71.647 81.426 2.091 
30 C 1 77.503 81.802 7.182 
39 C 1 78.353 81.426 4.503 
40 C 1 77.062 81.949 4.771 
41 C 1 76.613 82.066 6.111 
42 C 1 75.232 82.244 6.378 
50 C 1 78.353 81.426 0.751 
51 C 1 77.934 81.628 2.091 
52 C 1 76.613 82.066 2.359 
53 C 1 76.157 82.155 3.699 
63 C 1 75.696 82.215 1.287 
117 C 1 71.647 68.574 10.13 
118 C 1 72.938 68.051 10.398 
129 C 1 73.843 67.845 9.326 
334 C 1 72.066 68.372 15.222 
344 C 1 72.497 68.198 12.81 
345 C 1 72.938 68.051 14.15 
346 C 1 74.304 67.785 14.418 
347 C 1 74.768 67.756 15.758 
357 C 1 73.387 67.934 11.738 
358 C 1 74.768 67.756 12.006 
130 C 1 75.232 67.756 9.594 
131 C 1 75.696 67.785 10.934 
132 C 1 77.062 68.051 11.202 
143 C 1 76.157 67.845 8.522 
144 C 1 77.503 68.198 8.79 
145 C 1 77.934 68.372 10.13 
348 C 1 76.157 67.845 16.026 
359 C 1 75.232 67.756 13.346 
360 C 1 76.613 67.934 13.614 
361 C 1 77.062 68.051 14.954 
362 C 1 78.353 68.574 15.222 
371 C 1 77.503 68.198 12.542 
76 C 1 67.767 74.536 11.202 
88 C 1 67.811 74.073 8.79 
89 C 1 67.886 73.614 10.13 
90 C 1 68.282 72.28 10.398 
101 C 1 68.685 71.443 9.326 
305 C 1 67.767 74.536 14.954 
306 C 1 67.989 73.161 15.222 
315 C 1 67.811 74.073 12.542 
316 C 1 68.121 72.716 12.81 
317 C 1 68.282 72.28 14.15 
329 C 1 68.47 71.855 11.738 
102 C 1 69.481 70.302 9.594 
103 C 1 69.793 69.958 10.934 
104 C 1 70.853 69.055 11.202 
115 C 1 70.127 69.634 8.522 
116 C 1 71.243 68.802 8.79 
318 C 1 68.925 71.046 14.418 
319 C 1 69.191 70.665 15.758 
320 C 1 70.127 69.634 16.026 
330 C 1 69.191 70.665 12.006 
331 C 1 69.481 70.302 13.346 
332 C 1 70.481 69.333 13.614 
333 C 1 70.853 69.055 14.954 
343 C 1 71.243 68.802 12.542 
146 C 1 79.147 69.055 10.398 
157 C 1 79.873 69.634 9.326 
158 C 1 80.809 70.665 9.594 
159 C 1 81.075 71.046 10.934 
372 C 1 78.757 68.802 12.81 
373 C 1 79.147 69.055 14.15 
374 C 1 80.207 69.958 14.418 
375 C 1 80.519 70.302 15.758 
381 C 1 79.519 69.333 11.738 
382 C 1 80.519 70.302 12.006 
383 C 1 80.809 70.665 13.346 
160 C 1 81.718 72.28 11.202 
171 C 1 81.315 71.443 8.522 
172 C 1 81.879 72.716 8.79 
173 C 1 82.011 73.161 10.13 
174 C 1 82.233 74.536 10.398 
376 C 1 81.315 71.443 16.026 
384 C 1 81.53 71.855 13.614 
385 C 1 81.718 72.28 14.954 
386 C 1 82.114 73.614 15.222 
389 C 1 81.879 72.716 12.542 
390 C 1 82.189 74.073 12.81 
391 C 1 82.233 74.536 14.15 
62 C 1 68.685 78.557 10.398 
73 C 1 68.282 77.72 9.326 
74 C 1 67.886 76.386 9.594 
75 C 1 67.811 75.927 10.934 
87 C 1 67.767 75.464 8.522 
289 C 1 68.685 78.557 14.15 
290 C 1 68.121 77.284 14.418 
291 C 1 67.989 76.839 15.758 
292 C 1 67.767 75.464 16.026 
301 C 1 68.47 78.145 11.738 
302 C 1 67.989 76.839 12.006 
303 C 1 67.886 76.386 13.346 
304 C 1 67.752 75 13.614 
47 C 1 71.243 81.198 10.934 
48 C 1 70.127 80.366 11.202 
59 C 1 70.853 80.945 8.522 
60 C 1 69.793 80.042 8.79 
61 C 1 69.481 79.698 10.13 
264 C 1 70.853 80.945 16.026 
276 C 1 70.481 80.667 13.614 
277 C 1 70.127 80.366 14.954 
278 C 1 69.191 79.335 15.222 
287 C 1 69.793 80.042 12.542 
288 C 1 68.925 78.954 12.81 
8 C 1 81.075 78.954 8.79 
9 C 1 80.809 79.335 10.13 
10 C 1 79.873 80.366 10.398 
17 C 1 79.147 80.945 9.326 
222 C 1 80.519 79.698 15.222 
231 C 1 81.075 78.954 12.542 
232 C 1 80.207 80.042 12.81 
233 C 1 79.873 80.366 14.15 
234 C 1 78.757 81.198 14.418 
245 C 1 79.519 80.667 11.738 
1 C 1 82.233 75.464 9.326 
2 C 1 82.011 76.839 9.594 
3 C 1 81.879 77.284 10.934 
4 C 1 81.315 78.557 11.202 
7 C 1 81.718 77.72 8.522 
207 C 1 82.114 76.386 15.758 
208 C 1 81.718 77.72 16.026 
217 C 1 82.248 75 11.738 
218 C 1 82.114 76.386 12.006 
219 C 1 82.011 76.839 13.346 
220 C 1 81.53 78.145 13.614 
221 C 1 81.315 78.557 14.954 
392 C 1 82.189 75.927 14.418 
46 C 1 71.647 81.426 9.594 
45 C 1 72.938 81.949 9.326 
260 C 1 74.304 82.215 12.81 
250 C 1 74.768 82.244 15.222 
261 C 1 73.843 82.155 14.15 
262 C 1 72.497 81.802 14.418 
273 C 1 73.387 82.066 11.738 
263 C 1 72.066 81.628 15.758 
274 C 1 72.066 81.628 12.006 
275 C 1 71.647 81.426 13.346 
34 C 1 73.843 82.155 10.398 
235 C 1 78.353 81.426 15.758 
259 C 1 75.696 82.215 12.542 
20 C 1 76.157 82.155 11.202 
249 C 1 76.157 82.155 14.954 
33 C 1 75.232 82.244 10.13 
236 C 1 77.062 81.949 16.026 
248 C 1 76.613 82.066 13.614 
246 C 1 78.353 81.426 12.006 
18 C 1 77.934 81.628 9.594 
32 C 1 75.696 82.215 8.79 
247 C 1 77.934 81.628 13.346 
31 C 1 77.062 81.949 8.522 
19 C 1 77.503 81.802 10.934 
313 C 1 71.647 68.574 21.385 
314 C 1 72.938 68.051 21.653 
322 C 1 71.647 68.574 17.634 
323 C 1 72.066 68.372 18.973 
324 C 1 73.387 67.934 19.241 
325 C 1 73.843 67.845 20.581 
335 C 1 72.497 68.198 16.562 
336 C 1 73.843 67.845 16.83 
337 C 1 74.304 67.785 18.169 
540 C 1 72.497 68.198 24.065 
553 C 1 73.387 67.934 22.993 
554 C 1 74.768 67.756 23.261 
326 C 1 75.232 67.756 20.849 
327 C 1 75.696 67.785 22.189 
328 C 1 77.062 68.051 22.457 
338 C 1 75.696 67.785 18.437 
339 C 1 76.157 67.845 19.777 
340 C 1 77.503 68.198 20.045 
341 C 1 77.934 68.372 21.385 
349 C 1 76.613 67.934 17.366 
350 C 1 77.934 68.372 17.634 
351 C 1 78.353 68.574 18.973 
567 C 1 77.503 68.198 23.797 
272 C 1 67.767 74.536 22.457 
284 C 1 67.811 74.073 20.045 
285 C 1 67.886 73.614 21.385 
286 C 1 68.282 72.28 21.653 
294 C 1 67.886 73.614 17.634 
295 C 1 67.989 73.161 18.973 
296 C 1 68.47 71.855 19.241 
297 C 1 68.685 71.443 20.581 
307 C 1 68.121 72.716 16.562 
308 C 1 68.685 71.443 16.83 
511 C 1 67.811 74.073 23.797 
512 C 1 68.121 72.716 24.065 
525 C 1 68.47 71.855 22.993 
298 C 1 69.481 70.302 20.849 
299 C 1 69.793 69.958 22.189 
300 C 1 70.853 69.055 22.457 
309 C 1 68.925 71.046 18.169 
310 C 1 69.793 69.958 18.437 
311 C 1 70.127 69.634 19.777 
312 C 1 71.243 68.802 20.045 
321 C 1 70.481 69.333 17.366 
526 C 1 69.191 70.665 23.261 
539 C 1 71.243 68.802 23.797 
342 C 1 79.147 69.055 21.653 
352 C 1 79.519 69.333 19.241 
353 C 1 79.873 69.634 20.581 
354 C 1 80.809 70.665 20.849 
355 C 1 81.075 71.046 22.189 
363 C 1 78.757 68.802 16.562 
364 C 1 79.873 69.634 16.83 
365 C 1 80.207 69.958 18.169 
366 C 1 81.075 71.046 18.437 
568 C 1 78.757 68.802 24.065 
577 C 1 79.519 69.333 22.993 
578 C 1 80.519 70.302 23.261 
356 C 1 81.718 72.28 22.457 
367 C 1 81.315 71.443 19.777 
368 C 1 81.879 72.716 20.045 
369 C 1 82.011 73.161 21.385 
370 C 1 82.233 74.536 21.653 
377 C 1 81.53 71.855 17.366 
378 C 1 82.011 73.161 17.634 
379 C 1 82.114 73.614 18.973 
387 C 1 82.189 74.073 16.562 
585 C 1 81.879 72.716 23.797 
586 C 1 82.189 74.073 24.065 
258 C 1 68.685 78.557 21.653 
268 C 1 68.47 78.145 19.241 
269 C 1 68.282 77.72 20.581 
270 C 1 67.886 76.386 20.849 
271 C 1 67.811 75.927 22.189 
280 C 1 68.282 77.72 16.83 
281 C 1 68.121 77.284 18.169 
282 C 1 67.811 75.927 18.437 
283 C 1 67.767 75.464 19.777 
293 C 1 67.752 75 17.366 
497 C 1 68.47 78.145 22.993 
498 C 1 67.989 76.839 23.261 
243 C 1 71.243 81.198 22.189 
244 C 1 70.127 80.366 22.457 
254 C 1 71.243 81.198 18.437 
255 C 1 70.853 80.945 19.777 
256 C 1 69.793 80.042 20.045 
257 C 1 69.481 79.698 21.385 
265 C 1 70.481 80.667 17.366 
266 C 1 69.481 79.698 17.634 
267 C 1 69.191 79.335 18.973 
279 C 1 68.925 78.954 16.562 
483 C 1 69.793 80.042 23.797 
484 C 1 68.925 78.954 24.065 
204 C 1 81.075 78.954 20.045 
205 C 1 80.809 79.335 21.385 
206 C 1 79.873 80.366 21.653 
210 C 1 80.809 79.335 17.634 
211 C 1 80.519 79.698 18.973 
212 C 1 79.519 80.667 19.241 
213 C 1 79.147 80.945 20.581 
223 C 1 80.207 80.042 16.562 
224 C 1 79.147 80.945 16.83 
225 C 1 78.757 81.198 18.169 
427 C 1 81.075 78.954 23.797 
428 C 1 80.207 80.042 24.065 
441 C 1 79.519 80.667 22.993 
197 C 1 82.233 75.464 20.581 
198 C 1 82.011 76.839 20.849 
199 C 1 81.879 77.284 22.189 
200 C 1 81.315 78.557 22.457 
201 C 1 82.189 75.927 18.169 
202 C 1 81.879 77.284 18.437 
203 C 1 81.718 77.72 19.777 
209 C 1 81.53 78.145 17.366 
380 C 1 82.248 75 19.241 
388 C 1 82.233 75.464 16.83 
413 C 1 82.248 75 22.993 
414 C 1 82.114 76.386 23.261 
230 C 1 73.843 82.155 21.653 
239 C 1 74.768 82.244 18.973 
240 C 1 73.387 82.066 19.241 
241 C 1 72.938 81.949 20.581 
242 C 1 71.647 81.426 20.849 
251 C 1 74.304 82.215 16.562 
252 C 1 72.938 81.949 16.83 
253 C 1 72.497 81.802 18.169 
456 C 1 74.304 82.215 24.065 
469 C 1 73.387 82.066 22.993 
470 C 1 72.066 81.628 23.261 
214 C 1 77.934 81.628 20.849 
215 C 1 77.503 81.802 22.189 
216 C 1 76.157 82.155 22.457 
226 C 1 77.503 81.802 18.437 
227 C 1 77.062 81.949 19.777 
228 C 1 75.696 82.215 20.045 
229 C 1 75.232 82.244 21.385 
237 C 1 76.613 82.066 17.366 
238 C 1 75.232 82.244 17.634 
442 C 1 78.353 81.426 23.261 
455 C 1 75.696 82.215 23.797 
518 C 1 71.647 68.574 28.889 
519 C 1 72.066 68.372 30.228 
520 C 1 73.387 67.934 30.496 
521 C 1 73.843 67.845 31.836 
530 C 1 72.066 68.372 26.477 
531 C 1 72.497 68.198 27.817 
532 C 1 73.843 67.845 28.085 
533 C 1 74.304 67.785 29.424 
541 C 1 72.938 68.051 25.405 
542 C 1 74.304 67.785 25.673 
543 C 1 74.768 67.756 27.013 
522 C 1 75.232 67.756 32.104 
534 C 1 75.696 67.785 29.692 
535 C 1 76.157 67.845 31.032 
536 C 1 77.503 68.198 31.3 
544 C 1 76.157 67.845 27.281 
545 C 1 76.613 67.934 28.621 
546 C 1 77.934 68.372 28.889 
547 C 1 78.353 68.574 30.228 
555 C 1 75.232 67.756 24.601 
556 C 1 76.613 67.934 24.869 
557 C 1 77.062 68.051 26.209 
558 C 1 78.353 68.574 26.477 
480 C 1 67.811 74.073 31.3 
490 C 1 67.886 73.614 28.889 
491 C 1 67.989 73.161 30.228 
492 C 1 68.47 71.855 30.496 
493 C 1 68.685 71.443 31.836 
501 C 1 67.767 74.536 26.209 
502 C 1 67.989 73.161 26.477 
503 C 1 68.121 72.716 27.817 
504 C 1 68.685 71.443 28.085 
513 C 1 68.282 72.28 25.405 
494 C 1 69.481 70.302 32.104 
505 C 1 68.925 71.046 29.424 
506 C 1 69.793 69.958 29.692 
507 C 1 70.127 69.634 31.032 
508 C 1 71.243 68.802 31.3 
514 C 1 68.925 71.046 25.673 
515 C 1 69.191 70.665 27.013 
516 C 1 70.127 69.634 27.281 
517 C 1 70.481 69.333 28.621 
527 C 1 69.481 70.302 24.601 
528 C 1 70.481 69.333 24.869 
529 C 1 70.853 69.055 26.209 
548 C 1 79.519 69.333 30.496 
549 C 1 79.873 69.634 31.836 
550 C 1 80.809 70.665 32.104 
559 C 1 78.757 68.802 27.817 
560 C 1 79.873 69.634 28.085 
561 C 1 80.207 69.958 29.424 
562 C 1 81.075 71.046 29.692 
569 C 1 79.147 69.055 25.405 
570 C 1 80.207 69.958 25.673 
571 C 1 80.519 70.302 27.013 
579 C 1 80.809 70.665 24.601 
563 C 1 81.315 71.443 31.032 
564 C 1 81.879 72.716 31.3 
572 C 1 81.315 71.443 27.281 
573 C 1 81.53 71.855 28.621 
574 C 1 82.011 73.161 28.889 
575 C 1 82.114 73.614 30.228 
580 C 1 81.53 71.855 24.869 
581 C 1 81.718 72.28 26.209 
582 C 1 82.114 73.614 26.477 
583 C 1 82.189 74.073 27.817 
587 C 1 82.233 74.536 25.405 
464 C 1 68.47 78.145 30.496 
465 C 1 68.282 77.72 31.836 
466 C 1 67.886 76.386 32.104 
476 C 1 68.282 77.72 28.085 
477 C 1 68.121 77.284 29.424 
478 C 1 67.811 75.927 29.692 
479 C 1 67.767 75.464 31.032 
485 C 1 68.685 78.557 25.405 
486 C 1 68.121 77.284 25.673 
487 C 1 67.989 76.839 27.013 
488 C 1 67.767 75.464 27.281 
489 C 1 67.752 75 28.621 
499 C 1 67.886 76.386 24.601 
500 C 1 67.752 75 24.869 
450 C 1 71.243 81.198 29.692 
451 C 1 70.853 80.945 31.032 
452 C 1 69.793 80.042 31.3 
460 C 1 70.853 80.945 27.281 
461 C 1 70.481 80.667 28.621 
462 C 1 69.481 79.698 28.889 
463 C 1 69.191 79.335 30.228 
472 C 1 70.481 80.667 24.869 
473 C 1 70.127 80.366 26.209 
474 C 1 69.191 79.335 26.477 
475 C 1 68.925 78.954 27.817 
400 C 1 81.075 78.954 31.3 
406 C 1 80.809 79.335 28.889 
407 C 1 80.519 79.698 30.228 
408 C 1 79.519 80.667 30.496 
409 C 1 79.147 80.945 31.836 
418 C 1 80.519 79.698 26.477 
419 C 1 80.207 80.042 27.817 
420 C 1 79.147 80.945 28.085 
421 C 1 78.757 81.198 29.424 
429 C 1 79.873 80.366 25.405 
430 C 1 78.757 81.198 25.673 
393 C 1 82.233 75.464 31.836 
394 C 1 82.011 76.839 32.104 
397 C 1 82.189 75.927 29.424 
398 C 1 81.879 77.284 29.692 
399 C 1 81.718 77.72 31.032 
403 C 1 82.114 76.386 27.013 
404 C 1 81.718 77.72 27.281 
405 C 1 81.53 78.145 28.621 
415 C 1 82.011 76.839 24.601 
416 C 1 81.53 78.145 24.869 
417 C 1 81.315 78.557 26.209 
576 C 1 82.248 75 30.496 
584 C 1 82.233 75.464 28.085 
588 C 1 82.189 75.927 25.673 
449 C 1 72.497 81.802 29.424 
448 C 1 72.938 81.949 28.085 
458 C 1 72.497 81.802 25.673 
457 C 1 73.843 82.155 25.405 
459 C 1 72.066 81.628 27.013 
471 C 1 71.647 81.426 24.601 
435 C 1 74.768 82.244 30.228 
436 C 1 73.387 82.066 30.496 
437 C 1 72.938 81.949 31.836 
438 C 1 71.647 81.426 32.104 
446 C 1 74.768 82.244 26.477 
447 C 1 74.304 82.215 27.817 
432 C 1 77.062 81.949 27.281 
431 C 1 78.353 81.426 27.013 
443 C 1 77.934 81.628 24.601 
433 C 1 76.613 82.066 28.621 
445 C 1 76.157 82.155 26.209 
434 C 1 75.232 82.244 28.889 
423 C 1 77.062 81.949 31.032 
444 C 1 76.613 82.066 24.869 
422 C 1 77.503 81.802 29.692 
424 C 1 75.696 82.215 31.3 
410 C 1 77.934 81.628 32.104 
509 C 1 71.647 68.574 32.64 
510 C 1 72.938 68.051 32.908 
714 C 1 71.647 68.574 40.144 
726 C 1 72.066 68.372 37.732 
727 C 1 72.497 68.198 39.072 
728 C 1 73.843 67.845 39.34 
736 C 1 72.497 68.198 35.32 
737 C 1 72.938 68.051 36.66 
738 C 1 74.304 67.785 36.928 
739 C 1 74.768 67.756 38.268 
749 C 1 73.387 67.934 34.248 
750 C 1 74.768 67.756 34.516 
523 C 1 75.696 67.785 33.444 
524 C 1 77.062 68.051 33.712 
537 C 1 77.934 68.372 32.64 
740 C 1 76.157 67.845 38.536 
741 C 1 76.613 67.934 39.876 
742 C 1 77.934 68.372 40.144 
751 C 1 75.232 67.756 35.856 
752 C 1 76.613 67.934 36.124 
753 C 1 77.062 68.051 37.464 
754 C 1 78.353 68.574 37.732 
763 C 1 77.503 68.198 35.052 
468 C 1 67.767 74.536 33.712 
481 C 1 67.886 73.614 32.64 
482 C 1 68.282 72.28 32.908 
686 C 1 67.886 73.614 40.144 
697 C 1 67.767 74.536 37.464 
698 C 1 67.989 73.161 37.732 
699 C 1 68.121 72.716 39.072 
700 C 1 68.685 71.443 39.34 
707 C 1 67.811 74.073 35.052 
708 C 1 68.121 72.716 35.32 
709 C 1 68.282 72.28 36.66 
721 C 1 68.47 71.855 34.248 
495 C 1 69.793 69.958 33.444 
496 C 1 70.853 69.055 33.712 
710 C 1 68.925 71.046 36.928 
711 C 1 69.191 70.665 38.268 
712 C 1 70.127 69.634 38.536 
713 C 1 70.481 69.333 39.876 
722 C 1 69.191 70.665 34.516 
723 C 1 69.481 70.302 35.856 
724 C 1 70.481 69.333 36.124 
725 C 1 70.853 69.055 37.464 
735 C 1 71.243 68.802 35.052 
538 C 1 79.147 69.055 32.908 
551 C 1 81.075 71.046 33.444 
755 C 1 78.757 68.802 39.072 
756 C 1 79.873 69.634 39.34 
764 C 1 78.757 68.802 35.32 
765 C 1 79.147 69.055 36.66 
766 C 1 80.207 69.958 36.928 
767 C 1 80.519 70.302 38.268 
773 C 1 79.519 69.333 34.248 
774 C 1 80.519 70.302 34.516 
775 C 1 80.809 70.665 35.856 
552 C 1 81.718 72.28 33.712 
565 C 1 82.011 73.161 32.64 
566 C 1 82.233 74.536 32.908 
768 C 1 81.315 71.443 38.536 
769 C 1 81.53 71.855 39.876 
770 C 1 82.011 73.161 40.144 
776 C 1 81.53 71.855 36.124 
777 C 1 81.718 72.28 37.464 
778 C 1 82.114 73.614 37.732 
779 C 1 82.189 74.073 39.072 
781 C 1 81.879 72.716 35.052 
782 C 1 82.189 74.073 35.32 
783 C 1 82.233 74.536 36.66 
454 C 1 68.685 78.557 32.908 
467 C 1 67.811 75.927 33.444 
672 C 1 68.282 77.72 39.34 
681 C 1 68.685 78.557 36.66 
682 C 1 68.121 77.284 36.928 
683 C 1 67.989 76.839 38.268 
684 C 1 67.767 75.464 38.536 
685 C 1 67.752 75 39.876 
693 C 1 68.47 78.145 34.248 
694 C 1 67.989 76.839 34.516 
695 C 1 67.886 76.386 35.856 
696 C 1 67.752 75 36.124 
439 C 1 71.243 81.198 33.444 
440 C 1 70.127 80.366 33.712 
453 C 1 69.481 79.698 32.64 
656 C 1 70.853 80.945 38.536 
657 C 1 70.481 80.667 39.876 
658 C 1 69.481 79.698 40.144 
668 C 1 70.481 80.667 36.124 
669 C 1 70.127 80.366 37.464 
670 C 1 69.191 79.335 37.732 
671 C 1 68.925 78.954 39.072 
679 C 1 69.793 80.042 35.052 
680 C 1 68.925 78.954 35.32 
401 C 1 80.809 79.335 32.64 
402 C 1 79.873 80.366 32.908 
602 C 1 80.809 79.335 40.144 
614 C 1 80.519 79.698 37.732 
615 C 1 80.207 80.042 39.072 
616 C 1 79.147 80.945 39.34 
623 C 1 81.075 78.954 35.052 
624 C 1 80.207 80.042 35.32 
625 C 1 79.873 80.366 36.66 
626 C 1 78.757 81.198 36.928 
637 C 1 79.519 80.667 34.248 
395 C 1 81.879 77.284 33.444 
396 C 1 81.315 78.557 33.712 
599 C 1 82.114 76.386 38.268 
600 C 1 81.718 77.72 38.536 
601 C 1 81.53 78.145 39.876 
609 C 1 82.248 75 34.248 
610 C 1 82.114 76.386 34.516 
611 C 1 82.011 76.839 35.856 
612 C 1 81.53 78.145 36.124 
613 C 1 81.315 78.557 37.464 
780 C 1 82.233 75.464 39.34 
784 C 1 82.189 75.927 36.928 
426 C 1 73.843 82.155 32.908 
642 C 1 74.768 82.244 37.732 
643 C 1 74.304 82.215 39.072 
644 C 1 72.938 81.949 39.34 
652 C 1 74.304 82.215 35.32 
653 C 1 73.843 82.155 36.66 
654 C 1 72.497 81.802 36.928 
655 C 1 72.066 81.628 38.268 
665 C 1 73.387 82.066 34.248 
666 C 1 72.066 81.628 34.516 
667 C 1 71.647 81.426 35.856 
411 C 1 77.503 81.802 33.444 
412 C 1 76.157 82.155 33.712 
425 C 1 75.232 82.244 32.64 
627 C 1 78.353 81.426 38.268 
628 C 1 77.062 81.949 38.536 
629 C 1 76.613 82.066 39.876 
630 C 1 75.232 82.244 40.144 
638 C 1 78.353 81.426 34.516 
639 C 1 77.934 81.628 35.856 
640 C 1 76.613 82.066 36.124 
641 C 1 76.157 82.155 37.464 
651 C 1 75.696 82.215 35.052 
705 C 1 71.647 68.574 43.895 
706 C 1 72.938 68.051 44.163 
715 C 1 72.066 68.372 41.483 
716 C 1 73.387 67.934 41.751 
717 C 1 73.843 67.845 43.091 
729 C 1 74.304 67.785 40.68 
932 C 1 72.497 68.198 46.575 
933 C 1 72.938 68.051 47.915 
934 C 1 74.304 67.785 48.183 
945 C 1 73.387 67.934 45.503 
946 C 1 74.768 67.756 45.771 
718 C 1 75.232 67.756 43.359 
719 C 1 75.696 67.785 44.699 
720 C 1 77.062 68.051 44.967 
730 C 1 75.696 67.785 40.947 
731 C 1 76.157 67.845 42.287 
732 C 1 77.503 68.198 42.555 
733 C 1 77.934 68.372 43.895 
743 C 1 78.353 68.574 41.483 
947 C 1 75.232 67.756 47.111 
948 C 1 76.613 67.934 47.379 
959 C 1 77.503 68.198 46.307 
664 C 1 67.767 74.536 44.967 
676 C 1 67.811 74.073 42.555 
677 C 1 67.886 73.614 43.895 
678 C 1 68.282 72.28 44.163 
687 C 1 67.989 73.161 41.483 
688 C 1 68.47 71.855 41.751 
689 C 1 68.685 71.443 43.091 
903 C 1 67.811 74.073 46.307 
904 C 1 68.121 72.716 46.575 
905 C 1 68.282 72.28 47.915 
917 C 1 68.47 71.855 45.503 
690 C 1 69.481 70.302 43.359 
691 C 1 69.793 69.958 44.699 
692 C 1 70.853 69.055 44.967 
701 C 1 68.925 71.046 40.68 
702 C 1 69.793 69.958 40.947 
703 C 1 70.127 69.634 42.287 
704 C 1 71.243 68.802 42.555 
906 C 1 68.925 71.046 48.183 
918 C 1 69.191 70.665 45.771 
919 C 1 69.481 70.302 47.111 
920 C 1 70.481 69.333 47.379 
931 C 1 71.243 68.802 46.307 
734 C 1 79.147 69.055 44.163 
744 C 1 79.519 69.333 41.751 
745 C 1 79.873 69.634 43.091 
746 C 1 80.809 70.665 43.359 
747 C 1 81.075 71.046 44.699 
757 C 1 80.207 69.958 40.68 
758 C 1 81.075 71.046 40.947 
960 C 1 78.757 68.802 46.575 
961 C 1 79.147 69.055 47.915 
962 C 1 80.207 69.958 48.183 
969 C 1 79.519 69.333 45.503 
970 C 1 80.519 70.302 45.771 
971 C 1 80.809 70.665 47.111 
748 C 1 81.718 72.28 44.967 
759 C 1 81.315 71.443 42.287 
760 C 1 81.879 72.716 42.555 
761 C 1 82.011 73.161 43.895 
762 C 1 82.233 74.536 44.163 
771 C 1 82.114 73.614 41.483 
972 C 1 81.53 71.855 47.379 
977 C 1 81.879 72.716 46.307 
978 C 1 82.189 74.073 46.575 
979 C 1 82.233 74.536 47.915 
650 C 1 68.685 78.557 44.163 
660 C 1 68.47 78.145 41.751 
661 C 1 68.282 77.72 43.091 
662 C 1 67.886 76.386 43.359 
663 C 1 67.811 75.927 44.699 
673 C 1 68.121 77.284 40.68 
674 C 1 67.811 75.927 40.947 
675 C 1 67.767 75.464 42.287 
877 C 1 68.685 78.557 47.915 
878 C 1 68.121 77.284 48.183 
889 C 1 68.47 78.145 45.503 
890 C 1 67.989 76.839 45.771 
891 C 1 67.886 76.386 47.111 
892 C 1 67.752 75 47.379 
4510 H 2 70.7745 75.9125 47.9566 
635 C 1 71.243 81.198 44.699 
636 C 1 70.127 80.366 44.967 
646 C 1 71.243 81.198 40.947 
647 C 1 70.853 80.945 42.287 
648 C 1 69.793 80.042 42.555 
649 C 1 69.481 79.698 43.895 
659 C 1 69.191 79.335 41.483 
864 C 1 70.481 80.667 47.379 
875 C 1 69.793 80.042 46.307 
876 C 1 68.925 78.954 46.575 
4515 O 3 74.4718 76.0342 48.3399 
4516 H 2 73.527 75.8858 48.3013 
4745 H 2 74.8376 78.9098 48.5517 
4509 O 3 71.665 75.8764 48.3057 
4566 O 3 77.9117 77.4238 48.4347 
4568 H 2 77.4786 76.6865 48.0045 
596 C 1 81.075 78.954 42.555 
597 C 1 80.809 79.335 43.895 
598 C 1 79.873 80.366 44.163 
603 C 1 80.519 79.698 41.483 
604 C 1 79.519 80.667 41.751 
605 C 1 79.147 80.945 43.091 
617 C 1 78.757 81.198 40.68 
819 C 1 81.075 78.954 46.307 
820 C 1 80.207 80.042 46.575 
821 C 1 79.873 80.366 47.915 
822 C 1 78.757 81.198 48.183 
833 C 1 79.519 80.667 45.503 
4567 H 2 77.2543 78.1195 48.4381 
806 C 1 82.114 76.386 45.771 
805 C 1 82.248 75 45.503 
808 C 1 81.53 78.145 47.379 
807 C 1 82.011 76.839 47.111 
772 C 1 82.248 75 41.751 
595 C 1 81.718 77.72 42.287 
980 C 1 82.189 75.927 48.183 
589 C 1 82.233 75.464 43.091 
590 C 1 82.011 76.839 43.359 
591 C 1 81.879 77.284 44.699 
592 C 1 81.315 78.557 44.967 
593 C 1 82.189 75.927 40.68 
594 C 1 81.879 77.284 40.947 
863 C 1 71.647 81.426 47.111 
622 C 1 73.843 82.155 44.163 
631 C 1 74.768 82.244 41.483 
861 C 1 73.387 82.066 45.503 
632 C 1 73.387 82.066 41.751 
862 C 1 72.066 81.628 45.771 
850 C 1 72.497 81.802 48.183 
645 C 1 72.497 81.802 40.68 
848 C 1 74.304 82.215 46.575 
634 C 1 71.647 81.426 43.359 
633 C 1 72.938 81.949 43.091 
849 C 1 73.843 82.155 47.915 
619 C 1 77.062 81.949 42.287 
618 C 1 77.503 81.802 40.947 
836 C 1 76.613 82.066 47.379 
607 C 1 77.503 81.802 44.699 
834 C 1 78.353 81.426 45.771 
847 C 1 75.696 82.215 46.307 
606 C 1 77.934 81.628 43.359 
621 C 1 75.232 82.244 43.895 
835 C 1 77.934 81.628 47.111 
620 C 1 75.696 82.215 42.555 
608 C 1 76.157 82.155 44.967 
901 C 1 71.647 68.574 55.15 
902 C 1 72.938 68.051 55.418 
910 C 1 71.647 68.574 51.399 
911 C 1 72.066 68.372 52.738 
912 C 1 73.387 67.934 53.006 
913 C 1 73.843 67.845 54.346 
922 C 1 72.066 68.372 48.987 
923 C 1 72.497 68.198 50.327 
924 C 1 73.843 67.845 50.595 
925 C 1 74.304 67.785 51.935 
935 C 1 74.768 67.756 49.523 
914 C 1 75.232 67.756 54.614 
915 C 1 75.696 67.785 55.954 
916 C 1 77.062 68.051 56.222 
926 C 1 75.696 67.785 52.203 
927 C 1 76.157 67.845 53.542 
928 C 1 77.503 68.198 53.81 
929 C 1 77.934 68.372 55.15 
936 C 1 76.157 67.845 49.791 
937 C 1 76.613 67.934 51.131 
938 C 1 77.934 68.372 51.399 
939 C 1 78.353 68.574 52.738 
949 C 1 77.062 68.051 48.719 
950 C 1 78.353 68.574 48.987 
860 C 1 67.767 74.536 56.222 
872 C 1 67.811 74.073 53.81 
873 C 1 67.886 73.614 55.15 
874 C 1 68.282 72.28 55.418 
882 C 1 67.886 73.614 51.399 
883 C 1 67.989 73.161 52.738 
884 C 1 68.47 71.855 53.006 
885 C 1 68.685 71.443 54.346 
893 C 1 67.767 74.536 48.719 
894 C 1 67.989 73.161 48.987 
895 C 1 68.121 72.716 50.327 
896 C 1 68.685 71.443 50.595 
886 C 1 69.481 70.302 54.614 
887 C 1 69.793 69.958 55.954 
888 C 1 70.853 69.055 56.222 
897 C 1 68.925 71.046 51.935 
898 C 1 69.793 69.958 52.203 
899 C 1 70.127 69.634 53.542 
900 C 1 71.243 68.802 53.81 
907 C 1 69.191 70.665 49.523 
908 C 1 70.127 69.634 49.791 
909 C 1 70.481 69.333 51.131 
921 C 1 70.853 69.055 48.719 
4593 O 3 72.2952 72.2966 51.9709 
4594 H 2 72.3439 71.6649 52.6884 
4595 H 2 72.7891 71.8898 51.259 
4555 H 2 71.6768 73.4079 50.13 
4554 O 3 71.4194 73.2361 49.2242 
4551 O 3 73.6459 71.6685 49.2214 
4625 H 2 73.9916 74.9797 52.7997 
4556 H 2 71.5306 74.0765 48.7796 
4576 H 2 72.2619 72.4679 54.3564 
4575 O 3 72.6307 71.6284 54.631 
4577 H 2 72.5875 71.6484 55.587 
4676 H 2 74.3902 71.8806 54.3308 
4552 H 2 73.7769 70.8053 48.8291 
4553 H 2 72.7923 71.9534 48.895 
4692 O 3 78.2007 72.7852 51.0416 
4591 H 2 75.7041 73.9856 50.2783 
930 C 1 79.147 69.055 55.418 
940 C 1 79.519 69.333 53.006 
941 C 1 79.873 69.634 54.346 
942 C 1 80.809 70.665 54.614 
943 C 1 81.075 71.046 55.954 
951 C 1 78.757 68.802 50.327 
952 C 1 79.873 69.634 50.595 
953 C 1 80.207 69.958 51.935 
954 C 1 81.075 71.046 52.203 
963 C 1 80.519 70.302 49.523 
4674 O 3 75.336 72.0238 54.296 
4675 H 2 75.7142 71.1474 54.367 
4512 O 3 75.2976 74.0034 52.2921 
4513 H 2 75.1345 73.2609 52.8738 
4546 H 2 76.7874 73.0006 55.1277 
4545 O 3 77.701 73.2328 55.2939 
4514 H 2 76.1139 74.3856 52.6141 
4522 H 2 78.0281 74.3099 52.1847 
4547 H 2 78.0353 73.5161 54.4428 
4648 H 2 76.5501 74.911 56.1941 
4694 H 2 77.9871 72.8604 50.1116 
4590 O 3 75.8 73.5067 49.4551 
4693 H 2 78.1985 71.8434 51.2129 
4592 H 2 75.1603 72.7972 49.5144 
944 C 1 81.718 72.28 56.222 
955 C 1 81.315 71.443 53.542 
956 C 1 81.879 72.716 53.81 
957 C 1 82.011 73.161 55.15 
958 C 1 82.233 74.536 55.418 
964 C 1 81.315 71.443 49.791 
965 C 1 81.53 71.855 51.131 
966 C 1 82.011 73.161 51.399 
967 C 1 82.114 73.614 52.738 
973 C 1 81.718 72.28 48.719 
974 C 1 82.114 73.614 48.987 
975 C 1 82.189 74.073 50.327 
846 C 1 68.685 78.557 55.418 
856 C 1 68.47 78.145 53.006 
857 C 1 68.282 77.72 54.346 
858 C 1 67.886 76.386 54.614 
859 C 1 67.811 75.927 55.954 
868 C 1 68.282 77.72 50.595 
869 C 1 68.121 77.284 51.935 
870 C 1 67.811 75.927 52.203 
871 C 1 67.767 75.464 53.542 
879 C 1 67.989 76.839 49.523 
880 C 1 67.767 75.464 49.791 
881 C 1 67.752 75 51.131 
4632 O 3 73.6633 75.1986 55.8898 
4634 H 2 74.5096 75.6201 56.0394 
4624 H 2 73.5085 75.3225 54.1928 
4623 O 3 73.276 75.4091 53.2684 
4701 O 3 72.1426 76.8094 51.0348 
4702 H 2 71.6409 77.4935 51.4781 
4703 H 2 72.5228 76.2923 51.7449 
831 C 1 71.243 81.198 55.954 
832 C 1 70.127 80.366 56.222 
842 C 1 71.243 81.198 52.203 
843 C 1 70.853 80.945 53.542 
844 C 1 69.793 80.042 53.81 
845 C 1 69.481 79.698 55.15 
852 C 1 70.853 80.945 49.791 
853 C 1 70.481 80.667 51.131 
854 C 1 69.481 79.698 51.399 
855 C 1 69.191 79.335 52.738 
865 C 1 70.127 80.366 48.719 
866 C 1 69.191 79.335 48.987 
867 C 1 68.925 78.954 50.327 
4534 H 2 74.7579 78.4289 55.0945 
4533 O 3 74.207 78.5487 55.8681 
4565 H 2 74.6814 76.9143 53.5256 
4542 O 3 71.8115 77.2635 55.5208 
4544 H 2 72.5411 77.8806 55.4649 
4543 H 2 72.1898 76.4212 55.2685 
4535 H 2 74.745 78.2378 56.5962 
4511 H 2 71.6283 76.3929 49.1108 
4517 H 2 74.8328 75.2035 48.6493 
4521 O 3 77.7973 75.0092 52.7962 
4743 O 3 75.6095 78.5827 49.0135 
4550 H 2 75.9096 78.8703 50.7162 
4564 H 2 75.6545 78.0218 53.1813 
4563 O 3 75.4945 77.3258 53.8187 
4549 H 2 77.0277 78.5709 51.692 
4548 O 3 76.1499 78.949 51.6394 
4518 O 3 78.3111 77.1573 51.1922 
4519 H 2 79.0389 77.3891 51.7691 
4523 H 2 77.7902 75.803 52.2613 
792 C 1 81.075 78.954 53.81 
793 C 1 80.809 79.335 55.15 
794 C 1 79.873 80.366 55.418 