ITEM: TIMESTEP
535577
ITEM: NUMBER OF ATOMS
5816
ITEM: BOX BOUNDS pp pp pp
0.0000000000000000e+00 1.5000000000000000e+02
0.0000000000000000e+00 1.5000000000000000e+02
0.0000000000000000e+00 2.5886599999999999e+02
ITEM: ATOMS id element type x y z 
126 C 1 71.647 68.574 6.163 
127 C 1 72.066 68.372 7.503 
128 C 1 73.387 67.934 7.771 
138 C 1 72.066 68.372 3.752 
139 C 1 72.497 68.198 5.092 
140 C 1 73.843 67.845 5.36 
141 C 1 74.304 67.785 6.699 
148 C 1 72.497 68.198 1.34 
149 C 1 72.938 68.051 2.68 
150 C 1 74.304 67.785 2.948 
151 C 1 74.768 67.756 4.288 
161 C 1 73.387 67.934 0.268 
162 C 1 74.768 67.756 0.536 
142 C 1 75.696 67.785 6.967 
152 C 1 76.157 67.845 4.556 
153 C 1 76.613 67.934 5.896 
154 C 1 77.934 68.372 6.163 
155 C 1 78.353 68.574 7.503 
163 C 1 75.232 67.756 1.876 
164 C 1 76.613 67.934 2.144 
165 C 1 77.062 68.051 3.484 
166 C 1 78.353 68.574 3.752 
175 C 1 77.503 68.198 1.072 
98 C 1 67.886 73.614 6.163 
99 C 1 67.989 73.161 7.503 
100 C 1 68.47 71.855 7.771 
109 C 1 67.767 74.536 3.484 
110 C 1 67.989 73.161 3.752 
111 C 1 68.121 72.716 5.092 
112 C 1 68.685 71.443 5.36 
119 C 1 67.811 74.073 1.072 
120 C 1 68.121 72.716 1.34 
121 C 1 68.282 72.28 2.68 
133 C 1 68.47 71.855 0.268 
113 C 1 68.925 71.046 6.699 
114 C 1 69.793 69.958 6.967 
122 C 1 68.925 71.046 2.948 
123 C 1 69.191 70.665 4.288 
124 C 1 70.127 69.634 4.556 
125 C 1 70.481 69.333 5.896 
134 C 1 69.191 70.665 0.536 
135 C 1 69.481 70.302 1.876 
136 C 1 70.481 69.333 2.144 
137 C 1 70.853 69.055 3.484 
147 C 1 71.243 68.802 1.072 
4509 O 3 72.6175 72.9257 4.15071 
4511 H 2 72.6031 73.1227 3.21412 
4510 H 2 72.0552 73.5925 4.54492 
5706 O 3 72.7627 72.0346 0.0574818 
5707 H 2 72.096 72.5188 0.544593 
5708 H 2 73.2162 71.516 0.722072 
4584 O 3 71.1933 74.2458 1.11066 
4585 H 2 70.7859 74.4775 1.94528 
4528 H 2 73.6547 72.9075 6.1969 
4527 O 3 73.3701 72.4851 7.00733 
4529 H 2 73.9317 71.714 7.08605 
4554 O 3 71.3529 74.2883 6.28664 
4556 H 2 71.8033 73.4795 6.52977 
4555 H 2 71.0743 74.6677 7.12011 
5775 O 3 74.5817 70.9788 2.04907 
5776 H 2 74.283 71.4424 2.83145 
5779 H 2 74.9247 73.8583 4.65062 
5691 O 3 73.8321 74.9789 1.77219 
5693 H 2 74.4461 74.278 1.99137 
4586 H 2 72.0875 74.5804 1.17901 
5777 H 2 75.5103 71.2003 1.9787 
5773 H 2 77.2589 72.618 1.33918 
5772 O 3 77.0718 72.1599 2.15856 
156 C 1 79.519 69.333 7.771 
167 C 1 78.757 68.802 5.092 
168 C 1 79.873 69.634 5.36 
169 C 1 80.207 69.958 6.699 
170 C 1 81.075 71.046 6.967 
176 C 1 78.757 68.802 1.34 
177 C 1 79.147 69.055 2.68 
178 C 1 80.207 69.958 2.948 
179 C 1 80.519 70.302 4.288 
185 C 1 79.519 69.333 0.268 
186 C 1 80.519 70.302 0.536 
187 C 1 80.809 70.665 1.876 
5780 H 2 75.9837 74.5923 3.85576 
5778 O 3 75.5343 73.7497 3.92063 
5774 H 2 76.6548 72.8198 2.71261 
180 C 1 81.315 71.443 4.556 
181 C 1 81.53 71.855 5.896 
182 C 1 82.011 73.161 6.163 
183 C 1 82.114 73.614 7.503 
188 C 1 81.53 71.855 2.144 
189 C 1 81.718 72.28 3.484 
190 C 1 82.114 73.614 3.752 
191 C 1 82.189 74.073 5.092 
193 C 1 81.879 72.716 1.072 
194 C 1 82.189 74.073 1.34 
195 C 1 82.233 74.536 2.68 
72 C 1 68.47 78.145 7.771 
84 C 1 68.282 77.72 5.36 
85 C 1 68.121 77.284 6.699 
86 C 1 67.811 75.927 6.967 
93 C 1 68.685 78.557 2.68 
94 C 1 68.121 77.284 2.948 
95 C 1 67.989 76.839 4.288 
96 C 1 67.767 75.464 4.556 
97 C 1 67.752 75 5.896 
105 C 1 68.47 78.145 0.268 
106 C 1 67.989 76.839 0.536 
107 C 1 67.886 76.386 1.876 
108 C 1 67.752 75 2.144 
58 C 1 71.243 81.198 6.967 
68 C 1 70.853 80.945 4.556 
69 C 1 70.481 80.667 5.896 
70 C 1 69.481 79.698 6.163 
71 C 1 69.191 79.335 7.503 
80 C 1 70.481 80.667 2.144 
81 C 1 70.127 80.366 3.484 
82 C 1 69.191 79.335 3.752 
83 C 1 68.925 78.954 5.092 
91 C 1 69.793 80.042 1.072 
92 C 1 68.925 78.954 1.34 
4594 H 2 74.7608 78.9539 7.02623 
4749 O 3 72.5988 77.789 3.67323 
4751 H 2 73.4155 77.3889 3.37464 
4595 H 2 74.4131 77.6969 6.25754 
4593 O 3 74.5243 78.6418 6.15279 
4750 H 2 72.7458 77.9703 4.60154 
4745 H 2 71.3653 76.0044 3.68692 
4743 O 3 70.8376 75.207 3.64237 
4744 H 2 70.0173 75.4374 4.07846 
4601 H 2 74.0662 75.7136 6.50466 
5692 H 2 74.2077 75.3927 0.995059 
4599 O 3 73.8739 75.6316 5.57056 
4600 H 2 72.9296 75.4797 5.53237 
5571 O 3 77.4512 76.5256 2.12812 
5572 H 2 78.1787 77.1205 1.94606 
5788 H 2 78.2328 75.9317 5.70894 
4681 H 2 75.581 78.5535 4.46566 
4682 H 2 76.373 77.6386 3.55594 
4680 O 3 76.4748 78.2808 4.25838 
5789 H 2 78.0475 77.4252 5.54446 
5787 O 3 78.2613 76.756 6.19465 
5689 H 2 75.282 78.4457 0.372453 
14 C 1 80.809 79.335 6.163 
15 C 1 80.519 79.698 7.503 
16 C 1 79.519 80.667 7.771 
26 C 1 80.519 79.698 3.752 
27 C 1 80.207 80.042 5.092 
28 C 1 79.147 80.945 5.36 
29 C 1 78.757 81.198 6.699 
35 C 1 81.075 78.954 1.072 
36 C 1 80.207 80.042 1.34 
37 C 1 79.873 80.366 2.68 
38 C 1 78.757 81.198 2.948 
49 C 1 79.519 80.667 0.268 
5573 H 2 77.2625 76.1124 1.2856 
5816 H 2 78.7122 77.0209 7.98765 
5 C 1 82.189 75.927 6.699 
6 C 1 81.879 77.284 6.967 
11 C 1 82.114 76.386 4.288 
12 C 1 81.718 77.72 4.556 
13 C 1 81.53 78.145 5.896 
21 C 1 82.248 75 0.268 
22 C 1 82.114 76.386 0.536 
23 C 1 82.011 76.839 1.876 
24 C 1 81.53 78.145 2.144 
25 C 1 81.315 78.557 3.484 
184 C 1 82.248 75 7.771 
192 C 1 82.233 75.464 5.36 
196 C 1 82.189 75.927 2.948 
43 C 1 74.768 82.244 7.503 
44 C 1 73.387 82.066 7.771 
54 C 1 74.768 82.244 3.752 
55 C 1 74.304 82.215 5.092 
56 C 1 72.938 81.949 5.36 
57 C 1 72.497 81.802 6.699 
64 C 1 74.304 82.215 1.34 
65 C 1 73.843 82.155 2.68 
66 C 1 72.497 81.802 2.948 
67 C 1 72.066 81.628 4.288 
77 C 1 73.387 82.066 0.268 
78 C 1 72.066 81.628 0.536 
79 C 1 71.647 81.426 1.876 
30 C 1 77.503 81.802 6.967 
39 C 1 78.353 81.426 4.288 
40 C 1 77.062 81.949 4.556 
41 C 1 76.613 82.066 5.896 
42 C 1 75.232 82.244 6.163 
50 C 1 78.353 81.426 0.536 
51 C 1 77.934 81.628 1.876 
52 C 1 76.613 82.066 2.144 
53 C 1 76.157 82.155 3.484 
63 C 1 75.696 82.215 1.072 
117 C 1 71.647 68.574 9.915 
118 C 1 72.938 68.051 10.183 
129 C 1 73.843 67.845 9.111 
334 C 1 72.066 68.372 15.007 
344 C 1 72.497 68.198 12.595 
345 C 1 72.938 68.051 13.935 
346 C 1 74.304 67.785 14.203 
347 C 1 74.768 67.756 15.543 
357 C 1 73.387 67.934 11.523 
358 C 1 74.768 67.756 11.791 
130 C 1 75.232 67.756 9.379 
131 C 1 75.696 67.785 10.719 
132 C 1 77.062 68.051 10.987 
143 C 1 76.157 67.845 8.307 
144 C 1 77.503 68.198 8.575 
145 C 1 77.934 68.372 9.915 
348 C 1 76.157 67.845 15.811 
359 C 1 75.232 67.756 13.131 
360 C 1 76.613 67.934 13.399 
361 C 1 77.062 68.051 14.739 
362 C 1 78.353 68.574 15.007 
371 C 1 77.503 68.198 12.327 
76 C 1 67.767 74.536 10.987 
88 C 1 67.811 74.073 8.575 
89 C 1 67.886 73.614 9.915 
90 C 1 68.282 72.28 10.183 
101 C 1 68.685 71.443 9.111 
305 C 1 67.767 74.536 14.739 
306 C 1 67.989 73.161 15.007 
315 C 1 67.811 74.073 12.327 
316 C 1 68.121 72.716 12.595 
317 C 1 68.282 72.28 13.935 
329 C 1 68.47 71.855 11.523 
102 C 1 69.481 70.302 9.379 
103 C 1 69.793 69.958 10.719 
104 C 1 70.853 69.055 10.987 
115 C 1 70.127 69.634 8.307 
116 C 1 71.243 68.802 8.575 
318 C 1 68.925 71.046 14.203 
319 C 1 69.191 70.665 15.543 
320 C 1 70.127 69.634 15.811 
330 C 1 69.191 70.665 11.791 
331 C 1 69.481 70.302 13.131 
332 C 1 70.481 69.333 13.399 
333 C 1 70.853 69.055 14.739 
343 C 1 71.243 68.802 12.327 
5735 H 2 71.0953 73.693 9.30422 
5733 O 3 71.9952 73.9595 9.11611 
5734 H 2 72.454 73.1404 8.92959 
5666 H 2 76.8393 74.6295 10.5066 
5664 O 3 76.7994 74.9707 9.61319 
146 C 1 79.147 69.055 10.183 
157 C 1 79.873 69.634 9.111 
158 C 1 80.809 70.665 9.379 
159 C 1 81.075 71.046 10.719 
372 C 1 78.757 68.802 12.595 
373 C 1 79.147 69.055 13.935 
374 C 1 80.207 69.958 14.203 
375 C 1 80.519 70.302 15.543 
381 C 1 79.519 69.333 11.523 
382 C 1 80.519 70.302 11.791 
383 C 1 80.809 70.665 13.131 
160 C 1 81.718 72.28 10.987 
171 C 1 81.315 71.443 8.307 
172 C 1 81.879 72.716 8.575 
173 C 1 82.011 73.161 9.915 
174 C 1 82.233 74.536 10.183 
376 C 1 81.315 71.443 15.811 
384 C 1 81.53 71.855 13.399 
385 C 1 81.718 72.28 14.739 
386 C 1 82.114 73.614 15.007 
389 C 1 81.879 72.716 12.327 
390 C 1 82.189 74.073 12.595 
391 C 1 82.233 74.536 13.935 
62 C 1 68.685 78.557 10.183 
73 C 1 68.282 77.72 9.111 
74 C 1 67.886 76.386 9.379 
75 C 1 67.811 75.927 10.719 
87 C 1 67.767 75.464 8.307 
289 C 1 68.685 78.557 13.935 
290 C 1 68.121 77.284 14.203 
291 C 1 67.989 76.839 15.543 
292 C 1 67.767 75.464 15.811 
301 C 1 68.47 78.145 11.523 
302 C 1 67.989 76.839 11.791 
303 C 1 67.886 76.386 13.131 
304 C 1 67.752 75 13.399 
4568 H 2 73.9624 77.6026 9.59121 
4567 H 2 74.1808 78.2182 10.957 
4566 O 3 74.031 78.4457 10.0393 
5751 O 3 74.023 75.8903 8.81435 
5753 H 2 73.464 75.1492 9.04794 
5752 H 2 74.9071 75.6068 9.04728 
47 C 1 71.243 81.198 10.719 
48 C 1 70.127 80.366 10.987 
59 C 1 70.853 80.945 8.307 
60 C 1 69.793 80.042 8.575 
61 C 1 69.481 79.698 9.915 
264 C 1 70.853 80.945 15.811 
276 C 1 70.481 80.667 13.399 
277 C 1 70.127 80.366 14.739 
278 C 1 69.191 79.335 15.007 
287 C 1 69.793 80.042 12.327 
288 C 1 68.925 78.954 12.595 
5665 H 2 77.6553 75.3757 9.47249 
5814 O 3 78.658 76.9311 8.93909 
5796 O 3 78.8751 76.2134 13.6248 
5798 H 2 79.175 76.1283 12.7198 
5815 H 2 77.9287 77.497 9.19236 
5797 H 2 79.1387 75.3938 14.043 
8 C 1 81.075 78.954 8.575 
9 C 1 80.809 79.335 9.915 
10 C 1 79.873 80.366 10.183 
17 C 1 79.147 80.945 9.111 
222 C 1 80.519 79.698 15.007 
231 C 1 81.075 78.954 12.327 
232 C 1 80.207 80.042 12.595 
233 C 1 79.873 80.366 13.935 
234 C 1 78.757 81.198 14.203 
245 C 1 79.519 80.667 11.523 
1 C 1 82.233 75.464 9.111 
2 C 1 82.011 76.839 9.379 
3 C 1 81.879 77.284 10.719 
4 C 1 81.315 78.557 10.987 
7 C 1 81.718 77.72 8.307 
207 C 1 82.114 76.386 15.543 
208 C 1 81.718 77.72 15.811 
217 C 1 82.248 75 11.523 
218 C 1 82.114 76.386 11.791 
219 C 1 82.011 76.839 13.131 
220 C 1 81.53 78.145 13.399 
221 C 1 81.315 78.557 14.739 
392 C 1 82.189 75.927 14.203 
45 C 1 72.938 81.949 9.111 
274 C 1 72.066 81.628 11.791 
275 C 1 71.647 81.426 13.131 
273 C 1 73.387 82.066 11.523 
34 C 1 73.843 82.155 10.183 
263 C 1 72.066 81.628 15.543 
250 C 1 74.768 82.244 15.007 
261 C 1 73.843 82.155 13.935 
260 C 1 74.304 82.215 12.595 
262 C 1 72.497 81.802 14.203 
46 C 1 71.647 81.426 9.379 
236 C 1 77.062 81.949 15.811 
31 C 1 77.062 81.949 8.307 
33 C 1 75.232 82.244 9.915 
248 C 1 76.613 82.066 13.399 
32 C 1 75.696 82.215 8.575 
259 C 1 75.696 82.215 12.327 
18 C 1 77.934 81.628 9.379 
247 C 1 77.934 81.628 13.131 
235 C 1 78.353 81.426 15.543 
246 C 1 78.353 81.426 11.791 
20 C 1 76.157 82.155 10.987 
249 C 1 76.157 82.155 14.739 
19 C 1 77.503 81.802 10.719 
313 C 1 71.647 68.574 21.17 
314 C 1 72.938 68.051 21.438 
322 C 1 71.647 68.574 17.419 
323 C 1 72.066 68.372 18.758 
324 C 1 73.387 67.934 19.026 
325 C 1 73.843 67.845 20.366 
335 C 1 72.497 68.198 16.347 
336 C 1 73.843 67.845 16.615 
337 C 1 74.304 67.785 17.954 
540 C 1 72.497 68.198 23.85 
553 C 1 73.387 67.934 22.778 
554 C 1 74.768 67.756 23.046 
326 C 1 75.232 67.756 20.634 
327 C 1 75.696 67.785 21.974 
328 C 1 77.062 68.051 22.242 
338 C 1 75.696 67.785 18.222 
339 C 1 76.157 67.845 19.562 
340 C 1 77.503 68.198 19.83 
341 C 1 77.934 68.372 21.17 
349 C 1 76.613 67.934 17.151 
350 C 1 77.934 68.372 17.419 
351 C 1 78.353 68.574 18.758 
567 C 1 77.503 68.198 23.582 
272 C 1 67.767 74.536 22.242 
284 C 1 67.811 74.073 19.83 
285 C 1 67.886 73.614 21.17 
286 C 1 68.282 72.28 21.438 
294 C 1 67.886 73.614 17.419 
295 C 1 67.989 73.161 18.758 
296 C 1 68.47 71.855 19.026 
297 C 1 68.685 71.443 20.366 
307 C 1 68.121 72.716 16.347 
308 C 1 68.685 71.443 16.615 
511 C 1 67.811 74.073 23.582 
512 C 1 68.121 72.716 23.85 
525 C 1 68.47 71.855 22.778 
298 C 1 69.481 70.302 20.634 
299 C 1 69.793 69.958 21.974 
300 C 1 70.853 69.055 22.242 
309 C 1 68.925 71.046 17.954 
310 C 1 69.793 69.958 18.222 
311 C 1 70.127 69.634 19.562 
312 C 1 71.243 68.802 19.83 
321 C 1 70.481 69.333 17.151 
526 C 1 69.191 70.665 23.046 
539 C 1 71.243 68.802 23.582 
342 C 1 79.147 69.055 21.438 
352 C 1 79.519 69.333 19.026 
353 C 1 79.873 69.634 20.366 
354 C 1 80.809 70.665 20.634 
355 C 1 81.075 71.046 21.974 
363 C 1 78.757 68.802 16.347 
364 C 1 79.873 69.634 16.615 
365 C 1 80.207 69.958 17.954 
366 C 1 81.075 71.046 18.222 
568 C 1 78.757 68.802 23.85 
577 C 1 79.519 69.333 22.778 
578 C 1 80.519 70.302 23.046 
356 C 1 81.718 72.28 22.242 
367 C 1 81.315 71.443 19.562 
368 C 1 81.879 72.716 19.83 
369 C 1 82.011 73.161 21.17 
370 C 1 82.233 74.536 21.438 
377 C 1 81.53 71.855 17.151 
378 C 1 82.011 73.161 17.419 
379 C 1 82.114 73.614 18.758 
387 C 1 82.189 74.073 16.347 
585 C 1 81.879 72.716 23.582 
586 C 1 82.189 74.073 23.85 
258 C 1 68.685 78.557 21.438 
268 C 1 68.47 78.145 19.026 
269 C 1 68.282 77.72 20.366 
270 C 1 67.886 76.386 20.634 
271 C 1 67.811 75.927 21.974 
280 C 1 68.282 77.72 16.615 
281 C 1 68.121 77.284 17.954 
282 C 1 67.811 75.927 18.222 
283 C 1 67.767 75.464 19.562 
293 C 1 67.752 75 17.151 
497 C 1 68.47 78.145 22.778 
498 C 1 67.989 76.839 23.046 
243 C 1 71.243 81.198 21.974 
244 C 1 70.127 80.366 22.242 
254 C 1 71.243 81.198 18.222 
255 C 1 70.853 80.945 19.562 
256 C 1 69.793 80.042 19.83 
257 C 1 69.481 79.698 21.17 
265 C 1 70.481 80.667 17.151 
266 C 1 69.481 79.698 17.419 
267 C 1 69.191 79.335 18.758 
279 C 1 68.925 78.954 16.347 
483 C 1 69.793 80.042 23.582 
484 C 1 68.925 78.954 23.85 
204 C 1 81.075 78.954 19.83 
205 C 1 80.809 79.335 21.17 
206 C 1 79.873 80.366 21.438 
210 C 1 80.809 79.335 17.419 
211 C 1 80.519 79.698 18.758 
212 C 1 79.519 80.667 19.026 
213 C 1 79.147 80.945 20.366 
223 C 1 80.207 80.042 16.347 
224 C 1 79.147 80.945 16.615 
225 C 1 78.757 81.198 17.954 
427 C 1 81.075 78.954 23.582 
428 C 1 80.207 80.042 23.85 
441 C 1 79.519 80.667 22.778 
197 C 1 82.233 75.464 20.366 
198 C 1 82.011 76.839 20.634 
199 C 1 81.879 77.284 21.974 
200 C 1 81.315 78.557 22.242 
201 C 1 82.189 75.927 17.954 
202 C 1 81.879 77.284 18.222 
203 C 1 81.718 77.72 19.562 
209 C 1 81.53 78.145 17.151 
380 C 1 82.248 75 19.026 
388 C 1 82.233 75.464 16.615 
413 C 1 82.248 75 22.778 
414 C 1 82.114 76.386 23.046 
230 C 1 73.843 82.155 21.438 
239 C 1 74.768 82.244 18.758 
240 C 1 73.387 82.066 19.026 
241 C 1 72.938 81.949 20.366 
242 C 1 71.647 81.426 20.634 
251 C 1 74.304 82.215 16.347 
252 C 1 72.938 81.949 16.615 
253 C 1 72.497 81.802 17.954 
456 C 1 74.304 82.215 23.85 
469 C 1 73.387 82.066 22.778 
470 C 1 72.066 81.628 23.046 
214 C 1 77.934 81.628 20.634 
215 C 1 77.503 81.802 21.974 
216 C 1 76.157 82.155 22.242 
226 C 1 77.503 81.802 18.222 
227 C 1 77.062 81.949 19.562 
228 C 1 75.696 82.215 19.83 
229 C 1 75.232 82.244 21.17 
237 C 1 76.613 82.066 17.151 
238 C 1 75.232 82.244 17.419 
442 C 1 78.353 81.426 23.046 
455 C 1 75.696 82.215 23.582 
518 C 1 71.647 68.574 28.674 
519 C 1 72.066 68.372 30.013 
520 C 1 73.387 67.934 30.281 
521 C 1 73.843 67.845 31.621 
530 C 1 72.066 68.372 26.262 
531 C 1 72.497 68.198 27.602 
532 C 1 73.843 67.845 27.87 
533 C 1 74.304 67.785 29.209 
541 C 1 72.938 68.051 25.19 
542 C 1 74.304 67.785 25.458 
543 C 1 74.768 67.756 26.798 
522 C 1 75.232 67.756 31.889 
534 C 1 75.696 67.785 29.477 
535 C 1 76.157 67.845 30.817 
536 C 1 77.503 68.198 31.085 
544 C 1 76.157 67.845 27.066 
545 C 1 76.613 67.934 28.406 
546 C 1 77.934 68.372 28.674 
547 C 1 78.353 68.574 30.013 
555 C 1 75.232 67.756 24.386 
556 C 1 76.613 67.934 24.654 
557 C 1 77.062 68.051 25.994 
558 C 1 78.353 68.574 26.262 
480 C 1 67.811 74.073 31.085 
490 C 1 67.886 73.614 28.674 
491 C 1 67.989 73.161 30.013 
492 C 1 68.47 71.855 30.281 
493 C 1 68.685 71.443 31.621 
501 C 1 67.767 74.536 25.994 
502 C 1 67.989 73.161 26.262 
503 C 1 68.121 72.716 27.602 
504 C 1 68.685 71.443 27.87 
513 C 1 68.282 72.28 25.19 
494 C 1 69.481 70.302 31.889 
505 C 1 68.925 71.046 29.209 
506 C 1 69.793 69.958 29.477 
507 C 1 70.127 69.634 30.817 
508 C 1 71.243 68.802 31.085 
514 C 1 68.925 71.046 25.458 
515 C 1 69.191 70.665 26.798 
516 C 1 70.127 69.634 27.066 
517 C 1 70.481 69.333 28.406 
527 C 1 69.481 70.302 24.386 
528 C 1 70.481 69.333 24.654 
529 C 1 70.853 69.055 25.994 
5028 O 3 72.78 71.4872 26.6945 
5030 H 2 73.0027 70.6006 26.4105 
5029 H 2 72.7153 71.4248 27.6475 
4713 O 3 73.0999 72.0846 29.476 
4715 H 2 72.7946 72.951 29.2072 
4714 H 2 73.9243 72.2517 29.9328 
548 C 1 79.519 69.333 30.281 
549 C 1 79.873 69.634 31.621 
550 C 1 80.809 70.665 31.889 
559 C 1 78.757 68.802 27.602 
560 C 1 79.873 69.634 27.87 
561 C 1 80.207 69.958 29.209 
562 C 1 81.075 71.046 29.477 
569 C 1 79.147 69.055 25.19 
570 C 1 80.207 69.958 25.458 
571 C 1 80.519 70.302 26.798 
579 C 1 80.809 70.665 24.386 
563 C 1 81.315 71.443 30.817 
564 C 1 81.879 72.716 31.085 
572 C 1 81.315 71.443 27.066 
573 C 1 81.53 71.855 28.406 
574 C 1 82.011 73.161 28.674 
575 C 1 82.114 73.614 30.013 
580 C 1 81.53 71.855 24.654 
581 C 1 81.718 72.28 25.994 
582 C 1 82.114 73.614 26.262 
583 C 1 82.189 74.073 27.602 
587 C 1 82.233 74.536 25.19 
464 C 1 68.47 78.145 30.281 
465 C 1 68.282 77.72 31.621 
466 C 1 67.886 76.386 31.889 
476 C 1 68.282 77.72 27.87 
477 C 1 68.121 77.284 29.209 
478 C 1 67.811 75.927 29.477 
479 C 1 67.767 75.464 30.817 
485 C 1 68.685 78.557 25.19 
486 C 1 68.121 77.284 25.458 
487 C 1 67.989 76.839 26.798 
488 C 1 67.767 75.464 27.066 
489 C 1 67.752 75 28.406 
499 C 1 67.886 76.386 24.386 
500 C 1 67.752 75 24.654 
450 C 1 71.243 81.198 29.477 
451 C 1 70.853 80.945 30.817 
452 C 1 69.793 80.042 31.085 
460 C 1 70.853 80.945 27.066 
461 C 1 70.481 80.667 28.406 
462 C 1 69.481 79.698 28.674 
463 C 1 69.191 79.335 30.013 
472 C 1 70.481 80.667 24.654 
473 C 1 70.127 80.366 25.994 
474 C 1 69.191 79.335 26.262 
475 C 1 68.925 78.954 27.602 
400 C 1 81.075 78.954 31.085 
406 C 1 80.809 79.335 28.674 
407 C 1 80.519 79.698 30.013 
408 C 1 79.519 80.667 30.281 
409 C 1 79.147 80.945 31.621 
418 C 1 80.519 79.698 26.262 
419 C 1 80.207 80.042 27.602 
420 C 1 79.147 80.945 27.87 
421 C 1 78.757 81.198 29.209 
429 C 1 79.873 80.366 25.19 
430 C 1 78.757 81.198 25.458 
393 C 1 82.233 75.464 31.621 
394 C 1 82.011 76.839 31.889 
397 C 1 82.189 75.927 29.209 
398 C 1 81.879 77.284 29.477 
399 C 1 81.718 77.72 30.817 
403 C 1 82.114 76.386 26.798 
404 C 1 81.718 77.72 27.066 
405 C 1 81.53 78.145 28.406 
415 C 1 82.011 76.839 24.386 
416 C 1 81.53 78.145 24.654 
417 C 1 81.315 78.557 25.994 
576 C 1 82.248 75 30.281 
584 C 1 82.233 75.464 27.87 
588 C 1 82.189 75.927 25.458 
457 C 1 73.843 82.155 25.19 
449 C 1 72.497 81.802 29.209 
436 C 1 73.387 82.066 30.281 
447 C 1 74.304 82.215 27.602 
446 C 1 74.768 82.244 26.262 
438 C 1 71.647 81.426 31.889 
471 C 1 71.647 81.426 24.386 
459 C 1 72.066 81.628 26.798 
458 C 1 72.497 81.802 25.458 
448 C 1 72.938 81.949 27.87 
435 C 1 74.768 82.244 30.013 
437 C 1 72.938 81.949 31.621 
424 C 1 75.696 82.215 31.085 
433 C 1 76.613 82.066 28.406 
432 C 1 77.062 81.949 27.066 
422 C 1 77.503 81.802 29.477 
423 C 1 77.062 81.949 30.817 
431 C 1 78.353 81.426 26.798 
443 C 1 77.934 81.628 24.386 
410 C 1 77.934 81.628 31.889 
444 C 1 76.613 82.066 24.654 
434 C 1 75.232 82.244 28.674 
445 C 1 76.157 82.155 25.994 
509 C 1 71.647 68.574 32.425 
510 C 1 72.938 68.051 32.693 
714 C 1 71.647 68.574 39.929 
726 C 1 72.066 68.372 37.517 
727 C 1 72.497 68.198 38.857 
728 C 1 73.843 67.845 39.125 
736 C 1 72.497 68.198 35.105 
737 C 1 72.938 68.051 36.445 
738 C 1 74.304 67.785 36.713 
739 C 1 74.768 67.756 38.053 
749 C 1 73.387 67.934 34.033 
750 C 1 74.768 67.756 34.301 
523 C 1 75.696 67.785 33.229 
524 C 1 77.062 68.051 33.497 
537 C 1 77.934 68.372 32.425 
740 C 1 76.157 67.845 38.321 
741 C 1 76.613 67.934 39.661 
742 C 1 77.934 68.372 39.929 
751 C 1 75.232 67.756 35.641 
752 C 1 76.613 67.934 35.909 
753 C 1 77.062 68.051 37.249 
754 C 1 78.353 68.574 37.517 
763 C 1 77.503 68.198 34.837 
468 C 1 67.767 74.536 33.497 
481 C 1 67.886 73.614 32.425 
482 C 1 68.282 72.28 32.693 
686 C 1 67.886 73.614 39.929 
697 C 1 67.767 74.536 37.249 
698 C 1 67.989 73.161 37.517 
699 C 1 68.121 72.716 38.857 
700 C 1 68.685 71.443 39.125 
707 C 1 67.811 74.073 34.837 
708 C 1 68.121 72.716 35.105 
709 C 1 68.282 72.28 36.445 
721 C 1 68.47 71.855 34.033 
495 C 1 69.793 69.958 33.229 
496 C 1 70.853 69.055 33.497 
710 C 1 68.925 71.046 36.713 
711 C 1 69.191 70.665 38.053 
712 C 1 70.127 69.634 38.321 
713 C 1 70.481 69.333 39.661 
722 C 1 69.191 70.665 34.301 
723 C 1 69.481 70.302 35.641 
724 C 1 70.481 69.333 35.909 
725 C 1 70.853 69.055 37.249 
735 C 1 71.243 68.802 34.837 
4782 O 3 72.0699 72.0737 35.172 
4783 H 2 72.3337 72.7585 35.7865 
4784 H 2 71.3649 71.607 35.6208 
4823 H 2 71.5776 74.4488 39.6062 
4832 H 2 73.2066 71.1198 38.8258 
4553 H 2 71.1684 74.5308 34.2333 
4822 H 2 72.0442 73.4886 38.5329 
4821 O 3 71.7539 74.3907 38.6672 
4830 O 3 73.1348 71.6451 38.0289 
4552 H 2 70.0868 74.7792 35.263 
4754 H 2 74.9242 73.6604 38.2399 
4753 H 2 74.9763 73.5084 36.7345 
4831 H 2 73.247 71.0163 37.316 
538 C 1 79.147 69.055 32.693 
551 C 1 81.075 71.046 33.229 
755 C 1 78.757 68.802 38.857 
756 C 1 79.873 69.634 39.125 
764 C 1 78.757 68.802 35.105 
765 C 1 79.147 69.055 36.445 
766 C 1 80.207 69.958 36.713 
767 C 1 80.519 70.302 38.053 
773 C 1 79.519 69.333 34.033 
774 C 1 80.519 70.302 34.301 
775 C 1 80.809 70.665 35.641 
4752 O 3 75.0885 74.1513 37.4347 
552 C 1 81.718 72.28 33.497 
565 C 1 82.011 73.161 32.425 
566 C 1 82.233 74.536 32.693 
768 C 1 81.315 71.443 38.321 
769 C 1 81.53 71.855 39.661 
770 C 1 82.011 73.161 39.929 
776 C 1 81.53 71.855 35.909 
777 C 1 81.718 72.28 37.249 
778 C 1 82.114 73.614 37.517 
779 C 1 82.189 74.073 38.857 
781 C 1 81.879 72.716 34.837 
782 C 1 82.189 74.073 35.105 
783 C 1 82.233 74.536 36.445 
454 C 1 68.685 78.557 32.693 
467 C 1 67.811 75.927 33.229 
672 C 1 68.282 77.72 39.125 
681 C 1 68.685 78.557 36.445 
682 C 1 68.121 77.284 36.713 
683 C 1 67.989 76.839 38.053 
684 C 1 67.767 75.464 38.321 
685 C 1 67.752 75 39.661 
693 C 1 68.47 78.145 34.033 
694 C 1 67.989 76.839 34.301 
695 C 1 67.886 76.386 35.641 
696 C 1 67.752 75 35.909 
4679 H 2 72.164 76.2783 37.7087 
4678 H 2 72.8557 77.4549 37.0534 
4551 O 3 70.9072 75.1384 34.9252 
4550 H 2 72.0359 76.7498 34.9711 
4548 O 3 72.799 77.2453 34.6739 
4677 O 3 72.2614 77.2287 37.7689 
439 C 1 71.243 81.198 33.229 
440 C 1 70.127 80.366 33.497 
453 C 1 69.481 79.698 32.425 
656 C 1 70.853 80.945 38.321 
657 C 1 70.481 80.667 39.661 
658 C 1 69.481 79.698 39.929 
668 C 1 70.481 80.667 35.909 
669 C 1 70.127 80.366 37.249 
670 C 1 69.191 79.335 37.517 
671 C 1 68.925 78.954 38.857 
679 C 1 69.793 80.042 34.837 
680 C 1 68.925 78.954 35.105 
4694 H 2 74.4765 77.9204 39.8299 
4693 H 2 73.315 78.7762 39.371 
4692 O 3 73.9173 78.6474 40.1038 
4549 H 2 72.4479 78.1001 34.4244 
4673 H 2 76.5931 75.8782 37.0346 
4671 O 3 77.1194 76.5968 36.684 
4672 H 2 77.4318 76.2751 35.8384 
4977 O 3 77.807 77.4578 39.0658 
4979 H 2 77.9705 77.1673 38.1685 
4978 H 2 77.4294 78.3321 38.97 
401 C 1 80.809 79.335 32.425 
402 C 1 79.873 80.366 32.693 
602 C 1 80.809 79.335 39.929 
614 C 1 80.519 79.698 37.517 
615 C 1 80.207 80.042 38.857 
616 C 1 79.147 80.945 39.125 
623 C 1 81.075 78.954 34.837 
624 C 1 80.207 80.042 35.105 
625 C 1 79.873 80.366 36.445 
626 C 1 78.757 81.198 36.713 
637 C 1 79.519 80.667 34.033 
395 C 1 81.879 77.284 33.229 
396 C 1 81.315 78.557 33.497 
599 C 1 82.114 76.386 38.053 
600 C 1 81.718 77.72 38.321 
601 C 1 81.53 78.145 39.661 
609 C 1 82.248 75 34.033 
610 C 1 82.114 76.386 34.301 
611 C 1 82.011 76.839 35.641 
612 C 1 81.53 78.145 35.909 
613 C 1 81.315 78.557 37.249 
780 C 1 82.233 75.464 39.125 
784 C 1 82.189 75.927 36.713 
426 C 1 73.843 82.155 32.693 
642 C 1 74.768 82.244 37.517 
643 C 1 74.304 82.215 38.857 
644 C 1 72.938 81.949 39.125 
652 C 1 74.304 82.215 35.105 
653 C 1 73.843 82.155 36.445 
654 C 1 72.497 81.802 36.713 
655 C 1 72.066 81.628 38.053 
665 C 1 73.387 82.066 34.033 
666 C 1 72.066 81.628 34.301 
667 C 1 71.647 81.426 35.641 
411 C 1 77.503 81.802 33.229 
412 C 1 76.157 82.155 33.497 
425 C 1 75.232 82.244 32.425 
627 C 1 78.353 81.426 38.053 
628 C 1 77.062 81.949 38.321 
629 C 1 76.613 82.066 39.661 
630 C 1 75.232 82.244 39.929 
638 C 1 78.353 81.426 34.301 
639 C 1 77.934 81.628 35.641 
640 C 1 76.613 82.066 35.909 
641 C 1 76.157 82.155 37.249 
651 C 1 75.696 82.215 34.837 
705 C 1 71.647 68.574 43.68 
706 C 1 72.938 68.051 43.948 
715 C 1 72.066 68.372 41.268 
716 C 1 73.387 67.934 41.536 
717 C 1 73.843 67.845 42.876 
729 C 1 74.304 67.785 40.465 
932 C 1 72.497 68.198 46.36 
933 C 1 72.938 68.051 47.7 
934 C 1 74.304 67.785 47.968 
945 C 1 73.387 67.934 45.288 
946 C 1 74.768 67.756 45.556 
718 C 1 75.232 67.756 43.144 
719 C 1 75.696 67.785 44.484 
720 C 1 77.062 68.051 44.752 
730 C 1 75.696 67.785 40.732 
731 C 1 76.157 67.845 42.072 
732 C 1 77.503 68.198 42.34 
733 C 1 77.934 68.372 43.68 
743 C 1 78.353 68.574 41.268 
947 C 1 75.232 67.756 46.896 
948 C 1 76.613 67.934 47.164 
949 C 1 77.062 68.051 48.504 
959 C 1 77.503 68.198 46.092 
664 C 1 67.767 74.536 44.752 
676 C 1 67.811 74.073 42.34 
677 C 1 67.886 73.614 43.68 
678 C 1 68.282 72.28 43.948 
687 C 1 67.989 73.161 41.268 
688 C 1 68.47 71.855 41.536 
689 C 1 68.685 71.443 42.876 
893 C 1 67.767 74.536 48.504 
903 C 1 67.811 74.073 46.092 
904 C 1 68.121 72.716 46.36 
905 C 1 68.282 72.28 47.7 
917 C 1 68.47 71.855 45.288 
4612 H 2 74.4615 73.9757 41.5431 
690 C 1 69.481 70.302 43.144 
691 C 1 69.793 69.958 44.484 
692 C 1 70.853 69.055 44.752 
701 C 1 68.925 71.046 40.465 
702 C 1 69.793 69.958 40.732 
703 C 1 70.127 69.634 42.072 
704 C 1 71.243 68.802 42.34 
906 C 1 68.925 71.046 47.968 
918 C 1 69.191 70.665 45.556 
919 C 1 69.481 70.302 46.896 
920 C 1 70.481 69.333 47.164 
921 C 1 70.853 69.055 48.504 
931 C 1 71.243 68.802 46.092 
4700 H 2 70.782 74.4419 44.4939 
4698 O 3 71.0654 73.8384 43.8071 
4655 H 2 72.6157 72.2099 44.1382 
4759 H 2 74.7225 72.073 40.9956 
4758 O 3 74.3015 71.2158 41.0599 
4760 H 2 73.9236 71.1993 41.9391 
4654 H 2 73.8467 72.9467 43.655 
4653 O 3 73.5577 72.1042 44.0054 
4590 O 3 74.7907 70.7283 46.188 
4591 H 2 74.5158 71.1773 45.3886 
4592 H 2 74.3836 69.8639 46.1298 
4699 H 2 71.7501 74.3143 43.337 
4626 O 3 71.0593 74.8707 41.2016 
4628 H 2 70.4781 74.1112 41.2417 
4611 O 3 75.1256 74.0329 40.8562 
4613 H 2 75.3639 74.9596 40.8293 
5056 H 2 76.824 71.035 48.0689 
4763 H 2 77.1709 73.8407 45.849 
4762 H 2 77.5954 72.9903 44.6707 
4761 O 3 77.798 73.8072 45.1266 
734 C 1 79.147 69.055 43.948 
744 C 1 79.519 69.333 41.536 
745 C 1 79.873 69.634 42.876 
746 C 1 80.809 70.665 43.144 
747 C 1 81.075 71.046 44.484 
757 C 1 80.207 69.958 40.465 
758 C 1 81.075 71.046 40.732 
960 C 1 78.757 68.802 46.36 
961 C 1 79.147 69.055 47.7 
962 C 1 80.207 69.958 47.968 
969 C 1 79.519 69.333 45.288 
970 C 1 80.519 70.302 45.556 
971 C 1 80.809 70.665 46.896 
748 C 1 81.718 72.28 44.752 
759 C 1 81.315 71.443 42.072 
760 C 1 81.879 72.716 42.34 
761 C 1 82.011 73.161 43.68 
762 C 1 82.233 74.536 43.948 
771 C 1 82.114 73.614 41.268 
972 C 1 81.53 71.855 47.164 
973 C 1 81.718 72.28 48.504 
977 C 1 81.879 72.716 46.092 
978 C 1 82.189 74.073 46.36 
979 C 1 82.233 74.536 47.7 
650 C 1 68.685 78.557 43.948 
660 C 1 68.47 78.145 41.536 
661 C 1 68.282 77.72 42.876 
662 C 1 67.886 76.386 43.144 
663 C 1 67.811 75.927 44.484 
673 C 1 68.121 77.284 40.465 
674 C 1 67.811 75.927 40.732 
675 C 1 67.767 75.464 42.072 
877 C 1 68.685 78.557 47.7 
878 C 1 68.121 77.284 47.968 
889 C 1 68.47 78.145 45.288 
890 C 1 67.989 76.839 45.556 
891 C 1 67.886 76.386 46.896 
892 C 1 67.752 75 47.164 
4909 H 2 73.1453 78.2175 41.7855 
4845 O 3 73.7671 75.0694 43.1576 
4847 H 2 74.412 75.357 43.8038 
4846 H 2 73.4779 75.8763 42.7317 
4929 O 3 73.8379 77.8637 46.5978 
4910 H 2 73.2473 78.2642 43.2952 
4908 O 3 72.8479 77.7714 42.5785 
4931 H 2 72.9638 77.5169 46.4191 
4930 H 2 74.4326 77.2485 46.1688 
635 C 1 71.243 81.198 44.484 
636 C 1 70.127 80.366 44.752 
646 C 1 71.243 81.198 40.732 
647 C 1 70.853 80.945 42.072 
648 C 1 69.793 80.042 42.34 
649 C 1 69.481 79.698 43.68 
659 C 1 69.191 79.335 41.268 
864 C 1 70.481 80.667 47.164 
865 C 1 70.127 80.366 48.504 
875 C 1 69.793 80.042 46.092 
876 C 1 68.925 78.954 46.36 
4627 H 2 70.4702 75.6249 41.2214 
4702 H 2 77.4686 77.5812 41.1524 
4797 O 3 77.203 76.2895 48.4127 
4799 H 2 76.5965 76.7228 47.8123 
5077 H 2 79.456 76.8976 44.7951 
4652 H 2 75.3871 77.0223 44.9165 
4569 O 3 75.4183 78.5978 43.8497 
4571 H 2 75.5997 79.5321 43.7479 
4651 H 2 76.5908 76.1377 44.6705 
4650 O 3 75.713 76.1326 45.0522 
4570 H 2 76.0361 78.1676 43.2585 
5076 O 3 78.7626 76.4552 44.3054 
5078 H 2 78.7234 75.5773 44.6849 
4701 O 3 77.2796 77.603 42.0905 
4703 H 2 78.0448 77.1984 42.499 
596 C 1 81.075 78.954 42.34 
597 C 1 80.809 79.335 43.68 
598 C 1 79.873 80.366 43.948 
603 C 1 80.519 79.698 41.268 
604 C 1 79.519 80.667 41.536 
605 C 1 79.147 80.945 42.876 
617 C 1 78.757 81.198 40.465 
819 C 1 81.075 78.954 46.092 
820 C 1 80.207 80.042 46.36 
821 C 1 79.873 80.366 47.7 
822 C 1 78.757 81.198 47.968 
833 C 1 79.519 80.667 45.288 
589 C 1 82.233 75.464 42.876 
590 C 1 82.011 76.839 43.144 
591 C 1 81.879 77.284 44.484 
592 C 1 81.315 78.557 44.752 
593 C 1 82.189 75.927 40.465 
594 C 1 81.879 77.284 40.732 
595 C 1 81.718 77.72 42.072 
772 C 1 82.248 75 41.536 
805 C 1 82.248 75 45.288 
806 C 1 82.114 76.386 45.556 
807 C 1 82.011 76.839 46.896 
808 C 1 81.53 78.145 47.164 
809 C 1 81.315 78.557 48.504 
980 C 1 82.189 75.927 47.968 
632 C 1 73.387 82.066 41.536 
634 C 1 71.647 81.426 43.144 
633 C 1 72.938 81.949 42.876 
622 C 1 73.843 82.155 43.948 
849 C 1 73.843 82.155 47.7 
863 C 1 71.647 81.426 46.896 
850 C 1 72.497 81.802 47.968 
645 C 1 72.497 81.802 40.465 
631 C 1 74.768 82.244 41.268 
862 C 1 72.066 81.628 45.556 
861 C 1 73.387 82.066 45.288 
848 C 1 74.304 82.215 46.36 
836 C 1 76.613 82.066 47.164 
618 C 1 77.503 81.802 40.732 
621 C 1 75.232 82.244 43.68 
619 C 1 77.062 81.949 42.072 
620 C 1 75.696 82.215 42.34 
835 C 1 77.934 81.628 46.896 
606 C 1 77.934 81.628 43.144 