ITEM: TIMESTEP
2339097
ITEM: NUMBER OF ATOMS
5783
ITEM: BOX BOUNDS pp pp pp
0.0000000000000000e+00 1.5000000000000000e+02
0.0000000000000000e+00 1.5000000000000000e+02
0.0000000000000000e+00 2.5000000000000000e+02
ITEM: ATOMS id element type x y z 
4441 C 1 73.394 67.4732 5.95736 
126 C 1 72.1368 67.549 5.24552 
4440 C 1 74.561 67.8651 5.15891 
127 C 1 70.9279 68.1494 6.86434 
4439 C 1 71.0528 68.1565 4.76471 
149 C 1 74.6644 67.9324 2.32941 
4430 C 1 72.207 68.5927 7.17739 
128 C 1 73.5369 67.7812 7.48241 
4444 C 1 75.0507 64.8879 7.27325 
141 C 1 75.4289 66.993 4.4383 
143 C 1 75.5463 66.1576 7.3232 
4452 C 1 75.664 67.2097 3.05342 
153 C 1 79.103 67.1286 4.2399 
4442 C 1 76.6895 66.5524 5.06335 
4454 C 1 77.7249 66.8826 4.03809 
4456 C 1 79.6934 66.7423 5.49919 
142 C 1 76.6911 66.5601 6.53939 
155 C 1 80.0413 66.9604 6.74466 
151 C 1 77.084 67.4031 2.85283 
4457 C 1 77.5519 67.5927 7.13714 
165 C 1 79.8618 67.8866 3.37717 
163 C 1 77.8632 68.2654 1.9953 
4464 C 1 79.1135 68.6889 2.4994 
4455 C 1 77.8377 68.6511 6.22802 
4466 C 1 81.2583 68.0754 3.56784 
167 C 1 82.4645 68.707 3.5895 
4424 C 1 66.4272 69.9806 3.1236 
121 C 1 66.255 70.2679 1.81804 
123 C 1 67.0543 69.8926 4.34837 
111 C 1 68.0191 72.8172 3.49425 
4426 C 1 68.0456 69.9073 5.27831 
4410 C 1 67.5927 74.1188 3.11706 
4412 C 1 68.4007 72.4356 4.77422 
4422 C 1 66.6818 70.6931 0.589611 
4428 C 1 69.7302 68.7532 6.59237 
4435 C 1 68.7604 72.0653 2.457 
120 C 1 68.9708 72.6104 1.16446 
125 C 1 69.1443 69.9173 6.11531 
113 C 1 69.2559 72.4578 5.89385 
4414 C 1 69.6922 71.2218 6.54852 
124 C 1 70.1134 69.0466 4.35407 
4450 C 1 74.1984 69.0917 1.82363 
4437 C 1 69.7091 70.1628 3.74364 
122 C 1 69.8366 71.2219 2.8681 
116 C 1 72.3992 69.9643 7.27009 
4438 C 1 73.5978 70.1029 5.14063 
137 C 1 72.8166 70.4738 4.06146 
147 C 1 74.4621 70.4522 1.64888 
4436 C 1 72.4004 70.9932 2.88433 
4449 C 1 73.5691 71.5762 2.08838 
135 C 1 71.0968 71.3953 2.31907 
4434 C 1 71.2996 72.0706 1.13257 
4429 C 1 73.3164 70.6991 6.41265 
114 C 1 73.5607 72.1163 6.50858 
4427 C 1 73.7302 73.3958 6.16892 
134 C 1 72.8397 71.9471 0.784297 
136 C 1 74.2544 72.6536 2.92202 
100 C 1 69.9235 73.7816 6.23716 
133 C 1 70.2657 72.6331 0.435385 
4425 C 1 73.5579 73.7475 3.51326 
112 C 1 73.771 73.9585 4.88021 
139 C 1 74.7366 69.2684 4.98217 
4413 C 1 70.887 74.3588 5.32047 
110 C 1 72.6274 74.4544 2.74401 
4402 C 1 69.5387 74.6166 7.33533 
115 C 1 70.5081 71.4659 7.66138 
4451 C 1 75.4656 72.2282 3.49454 
4461 C 1 75.6164 70.8008 0.954648 
4453 C 1 75.9744 69.8674 4.6669 
138 C 1 76.0924 71.1282 4.0384 
4462 C 1 77.4495 69.0296 0.573064 
154 C 1 79.5216 70.0828 6.10761 
162 C 1 78.9551 69.7736 0.6844 
4477 C 1 79.7293 70.0305 2.05045 
140 C 1 77.0992 69.3486 5.34537 
150 C 1 77.1335 73.2844 3.24298 
4463 C 1 76.7432 73.0252 1.98426 
152 C 1 77.7531 71.8338 5.35496 
4467 C 1 78.454 70.8633 5.9425 
4465 C 1 77.4078 72.771 4.44764 
164 C 1 79.5746 71.2643 2.89065 
166 C 1 79.3572 72.9802 4.91256 
4479 C 1 79.5503 72.0979 3.94244 
4481 C 1 79.083 73.5198 6.09208 
148 C 1 76.1392 72.0963 1.19328 
178 C 1 79.2791 73.9766 1.72397 
4491 C 1 79.4323 73.0279 0.81617 
4493 C 1 79.4604 74.5651 2.89488 
161 C 1 76.2931 69.8688 0.09567 
4469 C 1 80.758 69.6701 6.24146 
175 C 1 81.0282 70.0627 1.13509 
168 C 1 79.0136 73.8762 7.35935 
180 C 1 79.6979 74.8379 4.19657 
176 C 1 79.8503 71.9558 0.0377916 
156 C 1 81.9061 69.2903 6.95039 
4468 C 1 83.0733 68.8644 4.87979 
4490 C 1 84.1455 70.8723 0.204704 
169 C 1 83.1407 69.296 6.22275 
177 C 1 83.1734 69.2352 2.38331 
179 C 1 85.2681 69.2479 3.56106 
4478 C 1 82.3754 69.67 1.18645 
4480 C 1 84.4916 69.6134 2.39734 
4482 C 1 86.0106 69.9196 4.46727 
4470 C 1 84.2491 69.6512 6.9683 
4503 C 1 83.8017 73.2865 3.3555 
188 C 1 84.055 73.6947 2.0667 
187 C 1 84.9151 70.5513 1.37577 
181 C 1 86.3041 70.908 5.35027 
183 C 1 85.6816 73.0662 6.70145 
189 C 1 86.3033 72.1535 3.02334 
4484 C 1 86.1192 72.0615 5.97633 
4492 C 1 85.635 71.7598 1.82609 
4494 C 1 86.615 73.1351 3.95556 
4501 C 1 85.0885 72.9555 1.06899 
4486 C 1 84.7557 73.8491 7.40757 
190 C 1 83.5227 74.1132 4.46352 
191 C 1 86.5128 74.2588 4.66159 
193 C 1 85.5641 74.445 0.963176 
4313 C 1 82.6486 74.8319 6.97322 
194 C 1 83.7448 74.9433 1.60824 
109 C 1 67.7634 75.4538 2.92634 
4396 C 1 67.8035 79.7167 1.94587 
95 C 1 67.9812 79.1555 3.27822 
4408 C 1 68.3075 76.7159 2.56846 
4398 C 1 68.3345 77.8239 3.58509 
4384 C 1 68.3218 80.2542 4.23834 
4406 C 1 68.7331 79.1714 1.03002 
93 C 1 67.174 80.9496 1.53441 
4387 C 1 68.209 79.3463 7.72931 
98 C 1 71.8256 75.1175 4.795 
97 C 1 68.94 77.5739 4.81902 
4423 C 1 71.6017 75.0892 2.19696 
99 C 1 69.1124 75.9514 7.12277 
4421 C 1 69.4376 76.8407 1.56033 
85 C 1 69.3588 80.055 5.14476 
4400 C 1 69.625 76.8 6.0808 
107 C 1 69.8352 78.3169 1.53665 
4386 C 1 69.6932 78.7465 5.53313 
4411 C 1 72.7602 75.8265 4.22712 
108 C 1 70.6157 75.8365 1.94138 
96 C 1 73.1632 76.8552 3.47417 
86 C 1 70.6344 78.0451 6.59136 
4407 C 1 71.0616 78.9282 1.26547 
4399 C 1 72.1141 78.0382 6.22902 
4409 C 1 73.0216 77.9304 2.72474 
84 C 1 73.029 78.7608 5.56882 
94 C 1 72.3315 78.5766 1.72001 
4397 C 1 73.4009 79.5821 4.62129 
82 C 1 73.1683 80.4267 3.57537 
92 C 1 70.9038 80.2619 0.880672 
4395 C 1 72.3954 80.9793 2.59688 
70 C 1 69.9399 81.1815 5.86085 
106 C 1 68.8714 76.5054 0.137463 
4405 C 1 69.9104 80.752 0.0276821 
4495 C 1 80.453 75.1264 5.33603 
14 C 1 79.7728 79.0154 6.5262 
26 C 1 79.4727 79.3288 3.30912 
28 C 1 77.3667 79.0123 4.92224 
4327 C 1 79.6931 77.9183 5.72704 
4339 C 1 80.3652 79.7825 2.48311 
4341 C 1 78.3976 79.1089 4.07042 
12 C 1 80.2166 77.1596 4.76475 
4343 C 1 76.441 79.4942 5.75661 
4329 C 1 80.0959 80.2492 6.71333 
4325 C 1 81.2076 76.548 4.03229 
30 C 1 76.0305 80.4336 6.61941 
27 C 1 81.1391 81.1122 4.01231 
182 C 1 81.5446 75.0897 6.1371 
24 C 1 81.4865 80.3542 1.80442 
4326 C 1 81.9702 80.0424 4.03799 
184 C 1 84.207 75.2383 7.05242 
4317 C 1 83.171 75.3668 4.9323 
4507 C 1 84.3965 75.2926 0.232452 
4502 C 1 86.4079 75.2471 1.62842 
25 C 1 82.5228 78.7713 3.81617 
4496 C 1 85.9436 75.2597 5.33286 
196 C 1 82.2011 76.0229 3.2844 
4337 C 1 82.562 79.467 1.45865 
4324 C 1 82.8653 78.4577 2.50167 
4319 C 1 82.6901 77.9869 5.04323 
4321 C 1 82.6066 78.9148 7.39018 
4323 C 1 83.2262 76.0073 2.32475 
5 C 1 85.3023 76.04 6.25449 
192 C 1 82.8989 76.6037 5.15583 
195 C 1 86.5685 76.387 2.36852 
6 C 1 83.12 78.7851 6.15353 
11 C 1 86.0702 78.167 4.40258 
13 C 1 84.3628 79.5011 5.80339 
23 C 1 83.432 77.3347 1.85019 
4314 C 1 85.2252 77.4423 6.57761 
4318 C 1 85.3434 78.4653 5.63538 
4504 C 1 86.4664 77.4177 3.29273 
4508 C 1 83.8159 77.7066 0.52104 
4320 C 1 84.2948 80.8754 6.10012 
7 C 1 84.446 77.6908 7.80475 
22 C 1 83.227 79.0213 0.266225 
83 C 1 67.9751 81.5677 4.08971 
4394 C 1 67.8676 81.9585 0.903642 
4382 C 1 68.2121 82.9123 3.80273 
80 C 1 71.3833 81.3244 1.71761 
78 C 1 71.3257 83.3871 0.225562 
4385 C 1 69.2954 81.4829 7.12395 
81 C 1 69.1656 83.6888 3.29057 
71 C 1 69.3522 83.9196 6.93437 
91 C 1 69.2439 81.8789 0.5842 
4383 C 1 71.0008 82.1809 5.44432 
4372 C 1 69.8903 84.9951 6.31345 
58 C 1 72.1209 82.2392 6.39821 
66 C 1 72.5869 82.9451 2.27351 
4371 C 1 73.2887 82.7039 5.74391 
4379 C 1 73.6758 82.7651 1.46862 
4380 C 1 70.2025 83.7628 2.34405 
69 C 1 71.2622 85.2295 6.04105 
4393 C 1 70.4384 82.6352 1.29604 
68 C 1 71.1383 83.2087 4.37797 
4381 C 1 71.6755 82.7427 3.18147 
4370 C 1 71.807 84.6419 4.7517 
44 C 1 74.1057 83.8701 7.30856 
56 C 1 73.2636 84.262 5.01198 
57 C 1 73.5215 85.1899 6.8374 
67 C 1 71.9529 85.2947 3.30873 
79 C 1 71.2892 84.733 2.21246 
4358 C 1 72.1331 85.4123 7.2309 
4368 C 1 73.1493 85.9892 3.1371 
4378 C 1 71.9354 84.5668 0.927854 
77 C 1 73.2208 84.9802 0.510804 
4356 C 1 74.1529 85.459 5.50242 
4369 C 1 74.2129 82.991 4.49499 
63 C 1 74.7028 85.0944 0.976209 
65 C 1 74.5145 85.8757 3.13409 
64 C 1 74.7814 83.0943 0.664403 
4373 C 1 72.1035 82.438 7.78127 
4374 C 1 69.64 82.7236 7.6405 
4357 C 1 75.2165 83.436 6.48938 
55 C 1 75.1283 85.724 4.46757 
54 C 1 75.1409 83.0269 3.54981 
4366 C 1 75.2497 85.2015 2.13241 
4328 C 1 80.076 81.8033 4.5699 
29 C 1 79.8916 81.7549 5.95501 
4345 C 1 76.2276 81.6233 7.24112 
4367 C 1 75.9804 83.9502 2.57637 
38 C 1 79.5179 82.4201 2.35596 
4351 C 1 80.4418 82.4934 1.36092 
4353 C 1 79.1714 82.5265 3.68983 
4330 C 1 78.7462 82.6729 6.44987 
42 C 1 76.4773 83.336 5.93818 
4355 C 1 77.7671 83.0668 5.53256 
4354 C 1 76.624 85.317 4.36063 
52 C 1 76.0982 83.2413 1.19047 
4344 C 1 76.9028 85.8068 6.7238 
4350 C 1 80.1896 83.6777 0.453488 
39 C 1 80.1896 85.5671 4.61556 
40 C 1 78.1321 83.3051 4.19853 
41 C 1 77.506 85.7725 5.40734 
51 C 1 79.3273 84.6668 1.47396 
53 C 1 77.306 84.3607 3.35122 
4342 C 1 78.9283 85.6591 5.12625 
4352 C 1 78.4287 84.8779 2.36344 
4365 C 1 77.1864 83.4513 0.431776 
16 C 1 80.895 81.5791 7.32484 
43 C 1 76.2681 85.2983 7.80809 
4340 C 1 81.2909 85.2509 3.87522 
15 C 1 83.3311 81.5538 6.82599 
36 C 1 81.4975 81.6173 1.22677 
37 C 1 81.8963 84.7746 2.75733 
4349 C 1 82.6123 82.0036 0.354757 
35 C 1 82.46 83.4931 0.342489 
4338 C 1 82.365 84.3173 1.53053 
129 C 1 73.8108 68.5665 9.004 
4443 C 1 74.9156 67.157 8.05429 
348 C 1 76.4569 68.3617 15.505 
130 C 1 75.2491 67.9776 9.27367 
4458 C 1 79.7156 67.4764 8.02492 
144 C 1 78.2872 67.6329 8.34539 
145 C 1 78.241 68.1341 9.7147 
157 C 1 80.5054 68.3317 8.81137 
132 C 1 77.2453 68.2131 10.7465 
131 C 1 75.8487 68.226 10.494 
361 C 1 77.4316 68.402 14.4636 
360 C 1 76.9064 68.3495 13.1177 
146 C 1 79.7137 68.7146 10.0109 
371 C 1 77.7996 68.3515 12.0548 
362 C 1 78.7651 68.6412 14.7926 
358 C 1 75.0285 68.7357 11.5201 
359 C 1 75.5042 68.6332 12.8636 
320 C 1 71.0822 71.7824 15.5665 
319 C 1 70.325 72.967 15.3189 
357 C 1 73.7753 69.4326 11.2343 
118 C 1 73.2469 69.5066 9.85911 
345 C 1 73.5969 69.7915 13.6245 
4415 C 1 70.2965 72.7327 8.21235 
102 C 1 71.0716 73.3274 9.41775 
318 C 1 70.1199 73.4728 14.0591 
330 C 1 70.4011 73.2624 11.6203 
103 C 1 71.1531 72.6706 10.5791 
331 C 1 70.6505 72.788 12.9409 
117 C 1 72.1794 70.5214 9.58981 
334 C 1 72.8082 70.2321 14.7149 
344 C 1 73.1226 70.0255 12.3491 
4416 C 1 71.5814 70.6374 8.28965 
104 C 1 71.8351 71.4309 10.7022 
332 C 1 71.4955 71.6126 13.1443 
333 C 1 71.7851 71.1877 14.4481 
343 C 1 72.1398 71.013 12.0373 
101 C 1 69.9158 74.2503 8.76597 
346 C 1 74.7286 69.0219 13.9075 
329 C 1 69.4666 74.3327 11.2782 
317 C 1 69.3996 74.7109 13.7309 
90 C 1 69.316 74.9303 9.92719 
347 C 1 75.1466 68.8161 15.195 
372 C 1 79.1914 68.762 12.3518 
373 C 1 79.6643 69.043 13.7163 
381 C 1 80.0709 69.1851 11.3396 
4483 C 1 79.9418 73.856 8.40104 
374 C 1 80.757 69.8354 14.0675 
170 C 1 81.2358 73.627 8.59037 
375 C 1 81.0845 70.1124 15.4355 
382 C 1 81.217 70.0041 11.6587 
171 C 1 84.4921 70.4914 8.01322 
4471 C 1 81.6328 69.0351 8.38064 
383 C 1 81.4126 70.4396 12.9694 
4485 C 1 82.4565 73.7879 7.96101 
159 C 1 82.1531 70.5256 10.718 
158 C 1 82.2558 69.9151 9.34761 
384 C 1 82.2765 71.575 13.2938 
385 C 1 82.428 71.9674 14.656 
160 C 1 82.9361 71.7092 10.953 
172 C 1 83.7925 73.0851 8.33496 
173 C 1 83.7876 72.471 9.91043 
386 C 1 82.998 73.2703 15.0768 
389 C 1 82.9202 72.2999 12.2319 
390 C 1 83.3053 73.647 12.5886 
4472 C 1 84.3673 71.5794 8.71312 
391 C 1 83.3211 74.1386 13.9721 
174 C 1 83.7813 74.0647 10.1858 
217 C 1 83.6784 74.4961 11.5312 
87 C 1 68.1285 78.0134 7.81786 
74 C 1 68.1583 79.9765 10.3092 
75 C 1 68.2883 78.4586 10.7441 
4388 C 1 68.5239 76.7391 8.17566 
76 C 1 68.4642 77.0994 10.8793 
304 C 1 68.6646 77.4636 13.2978 
315 C 1 68.6309 76.5037 12.1718 
305 C 1 68.796 76.8603 14.6169 
72 C 1 68.7563 80.6038 8.12755 
302 C 1 68.7611 79.6751 11.8475 
73 C 1 68.9009 80.8834 9.44986 
303 C 1 68.8956 78.8956 13.1431 
306 C 1 69.0718 75.5173 14.8578 
4401 C 1 70.5134 77.9042 8.13867 
89 C 1 69.0197 76.4037 9.67896 
316 C 1 69.0652 75.139 12.4095 
290 C 1 69.4259 79.6125 14.2331 
88 C 1 70.1996 77.2658 9.14308 
289 C 1 70.1967 80.8107 14.0411 
301 C 1 69.6725 80.9406 11.694 
291 C 1 69.1446 79.1349 15.4991 
234 C 1 80.9988 81.2287 14.3658 
1 C 1 83.8679 75.0503 9.24369 
4322 C 1 82.2992 81.2427 7.89596 
245 C 1 81.8895 80.7744 11.7205 
233 C 1 82.0678 80.32 14.0966 
10 C 1 82.2991 80.5745 10.4333 
392 C 1 83.4982 75.5442 14.3173 
232 C 1 82.4441 79.9825 12.7298 
4315 C 1 83.8917 76.3056 8.12437 
8 C 1 82.5553 79.7548 8.3945 
222 C 1 82.587 79.6014 15.149 
3 C 1 83.2155 76.8814 10.9279 
4 C 1 83.1851 78.2434 11.1112 
2 C 1 83.3443 76.4692 9.62437 
231 C 1 83.1635 78.7334 12.4037 
9 C 1 83.0708 79.2233 9.86304 
221 C 1 83.1064 78.2754 14.8777 
220 C 1 83.3049 77.8213 13.5063 
219 C 1 83.5139 76.4423 13.2735 
218 C 1 83.5412 75.9129 11.9143 
4316 C 1 84.1292 78.5498 8.73235 
288 C 1 70.3812 81.381 12.7778 
278 C 1 70.9599 81.2733 15.1122 
62 C 1 69.7862 81.5618 10.4081 
277 C 1 72.1535 81.9647 14.8332 
287 C 1 71.6097 82.0326 12.446 
276 C 1 72.5464 82.177 13.5252 
60 C 1 70.8564 82.793 8.47314 
61 C 1 70.8204 82.6636 10.1339 
48 C 1 71.9627 82.5416 11.1835 
59 C 1 71.5279 85.1325 8.5691 
4359 C 1 73.3379 83.0667 8.25628 
4360 C 1 70.9789 84.1495 9.31626 
274 C 1 74.2788 82.7821 11.9372 
47 C 1 73.3266 82.7657 10.8778 
275 C 1 73.8899 82.5905 13.3126 
46 C 1 73.8628 83.0842 9.6137 
262 C 1 74.8454 82.707 14.3497 
4332 C 1 77.7292 82.8353 8.66694 
249 C 1 78.4903 82.3101 14.9346 
260 C 1 76.7043 82.7197 12.7937 
32 C 1 76.5149 82.8546 7.88157 
33 C 1 77.5794 82.8787 10.1186 
261 C 1 76.249 82.7379 14.1357 
4346 C 1 75.7891 84.0691 8.34414 
20 C 1 78.5754 82.5245 11.1154 
247 C 1 80.2172 81.6804 13.31 
246 C 1 80.7813 81.6479 12.036 
45 C 1 75.1842 83.5869 9.54995 
273 C 1 75.6947 82.8945 11.7827 
18 C 1 80.6309 82.0824 9.62959 
248 C 1 78.921 82.1833 13.5539 
250 C 1 77.142 82.6317 15.2235 
259 C 1 78.1119 82.4987 12.4548 
4331 C 1 80.1032 82.3612 8.37006 
31 C 1 78.8362 82.76 7.8164 
34 C 1 76.1587 83.1573 10.5055 
19 C 1 79.9527 82.1847 10.9209 
17 C 1 81.8892 81.4268 9.47308 
328 C 1 77.3531 68.3418 22.0055 
339 C 1 76.4302 68.44 19.2983 
327 C 1 75.9722 68.4663 21.6686 
340 C 1 77.8072 68.3583 19.6025 
349 C 1 76.9283 68.2824 16.8346 
341 C 1 78.2806 68.391 20.945 
350 C 1 78.3335 68.4016 17.1614 
351 C 1 78.7915 68.5527 18.5419 
567 C 1 77.8567 68.2692 23.3209 
554 C 1 75.0316 68.5016 22.7387 
338 C 1 76.0031 68.4362 17.9289 
326 C 1 75.4894 68.5901 20.3047 
363 C 1 79.2573 68.6618 16.1215 
337 C 1 74.6469 68.78 17.6555 
286 C 1 69.1467 74.1294 21.2426 
525 C 1 69.2388 73.6376 22.5791 
296 C 1 69.3335 73.8341 18.8215 
553 C 1 73.6553 69.0129 22.503 
297 C 1 69.4434 73.3015 20.1444 
325 C 1 74.1614 69.0213 20.0668 
336 C 1 74.3199 69.1316 16.3287 
324 C 1 73.7624 69.1286 18.7198 
314 C 1 73.3172 69.3232 21.1561 
308 C 1 69.7342 73.6537 16.4018 
335 C 1 73.1493 69.8687 16.03 
309 C 1 69.82 73.0805 17.7124 
298 C 1 70.1675 72.0788 20.4044 
526 C 1 69.7852 72.3619 22.8316 
313 C 1 72.1524 70.1346 20.9175 
322 C 1 72.3072 70.3251 17.082 
323 C 1 72.5443 69.9878 18.4006 
299 C 1 70.3514 71.6247 21.7474 
300 C 1 71.2533 70.5536 21.9429 
310 C 1 70.5665 71.9266 17.9456 
311 C 1 70.8005 71.3943 19.3016 
312 C 1 71.8158 70.4686 19.5632 
321 C 1 71.274 71.2894 16.9042 
539 C 1 71.6076 70.146 23.2942 
307 C 1 69.1629 74.9618 16.1449 
342 C 1 79.5276 68.8922 21.2346 
352 C 1 80.02 69.1378 18.8745 
577 C 1 79.9798 69.1347 22.5956 
353 C 1 80.3444 69.3603 20.2181 
364 C 1 80.4034 69.4764 16.4607 
365 C 1 80.7068 69.7363 17.7987 
578 C 1 81.1137 69.8912 22.835 
354 C 1 81.4409 70.201 20.5092 
366 C 1 81.7219 70.6858 18.0406 
355 C 1 81.8736 70.4824 21.8368 
367 C 1 82.0237 70.9792 19.421 
377 C 1 82.2034 71.5206 17.0099 
356 C 1 82.5811 71.7075 22.1496 
368 C 1 82.6412 72.1897 19.694 
369 C 1 82.925 72.5876 21.0568 
370 C 1 83.2042 73.9638 21.374 
378 C 1 82.7358 72.7672 17.3528 
379 C 1 82.8975 73.1367 18.7059 
387 C 1 82.992 73.7159 16.3728 
380 C 1 83.164 74.5193 18.9944 
413 C 1 83.3388 74.3852 22.7352 
376 C 1 81.8886 71.188 15.7182 
197 C 1 83.2449 74.9572 20.3694 
284 C 1 68.884 76.1027 19.7478 
272 C 1 68.9557 76.456 22.1268 
293 C 1 68.7639 77.1898 17.0427 
285 C 1 68.8878 75.5685 21.0244 
294 C 1 68.9237 75.7729 17.3346 
511 C 1 68.8881 75.9055 23.4359 
283 C 1 69.0141 77.4982 19.5197 
295 C 1 68.9554 75.1543 18.6184 
292 C 1 68.7989 77.7919 15.7089 
282 C 1 68.9458 78.0578 18.1722 
271 C 1 69.1298 77.8391 21.9059 
270 C 1 69.1996 78.3628 20.5983 
498 C 1 69.3838 78.6356 23.0577 
281 C 1 69.3995 79.3892 17.9777 
269 C 1 69.7149 79.6243 20.3646 
280 C 1 69.5817 79.9064 16.6199 
497 C 1 70.1161 79.8144 22.7985 
268 C 1 69.9781 80.1455 19.0663 
258 C 1 70.3916 80.2017 21.4822 
279 C 1 70.6194 80.8373 16.4116 
267 C 1 71.0127 81.0101 18.8038 
213 C 1 81.2473 80.9863 20.5822 
388 C 1 83.2306 75.0649 16.647 
224 C 1 81.4496 81.0467 16.7952 
212 C 1 81.6679 80.7288 19.2346 
441 C 1 81.4801 80.5997 22.962 
206 C 1 81.802 80.2042 21.6096 
201 C 1 83.2907 75.4721 17.9796 
223 C 1 82.2986 79.9976 16.5144 
211 C 1 82.4903 79.56 18.9377 
210 C 1 82.7299 79.1042 17.5758 
204 C 1 82.8536 78.612 19.9963 
205 C 1 82.5799 78.9703 21.3289 
198 C 1 83.277 76.3378 20.708 
199 C 1 83.1377 76.7401 22.0603 
200 C 1 82.7555 78.0659 22.3812 
202 C 1 83.3842 76.8673 18.285 
203 C 1 83.1619 77.2432 19.6546 
209 C 1 83.2311 77.804 17.2964 
414 C 1 83.1645 75.7625 23.1012 
208 C 1 83.4423 77.4103 15.9426 
207 C 1 83.366 76.0096 15.6284 
257 C 1 71.311 81.2553 21.2356 
266 C 1 71.3586 81.3362 17.4996 
256 C 1 71.7281 81.5849 19.8884 
244 C 1 72.0393 81.833 22.3077 
265 C 1 72.5882 82.0169 17.2605 
264 C 1 73.0461 82.2007 15.9236 
255 C 1 72.9635 82.2622 19.6654 
243 C 1 73.2933 82.4197 22.0961 
254 C 1 73.4383 82.3249 18.3904 
242 C 1 73.8055 82.6213 20.7593 
470 C 1 74.1782 82.6264 23.1522 
253 C 1 74.7963 82.6882 18.0586 
263 C 1 74.3802 82.6159 15.6498 
225 C 1 81.0698 81.3764 18.1403 
442 C 1 80.4986 81.6038 23.2226 
252 C 1 75.2758 82.8322 16.7609 
241 C 1 75.18 82.8499 20.479 
214 C 1 80.1491 81.8138 20.8084 
469 C 1 75.5993 82.7159 22.8516 
240 C 1 75.6837 82.7847 19.1491 
215 C 1 79.7172 82.0744 22.1342 
226 C 1 79.8566 82.0695 18.3694 
236 C 1 79.3777 82.0802 15.9901 
227 C 1 79.3383 82.2719 19.728 
230 C 1 76.1184 82.8364 21.5047 
251 C 1 76.6771 82.8014 16.5352 
239 C 1 77.0421 82.7028 18.8867 
216 C 1 78.3936 82.5726 22.3922 
228 C 1 77.9608 82.5889 19.9543 
229 C 1 77.4971 82.5905 21.2764 
237 C 1 78.9924 82.3447 17.2862 
238 C 1 77.5631 82.5797 17.592 
235 C 1 80.6257 81.5113 15.6878 
543 C 1 74.9535 68.4241 26.5091 
533 C 1 74.4827 68.4889 28.9711 
532 C 1 74.1003 68.672 27.6389 
542 C 1 74.4931 68.5662 25.1664 
535 C 1 76.3163 68.0135 30.6114 
534 C 1 75.8502 68.1185 29.2775 
536 C 1 77.7346 68.1544 30.8967 
545 C 1 76.7435 68.0928 28.2057 
544 C 1 76.3931 68.2167 26.8137 
556 C 1 76.8736 68.2008 24.4424 
557 C 1 77.3285 68.2027 25.7416 
546 C 1 78.1863 68.1688 28.5202 
555 C 1 75.4608 68.3083 24.096 
547 C 1 78.6046 68.2676 29.8314 
558 C 1 78.6969 68.3519 26.084 
559 C 1 79.0091 68.4941 27.4432 
568 C 1 79.1422 68.5975 23.6042 
503 C 1 68.9635 74.2862 27.4536 
491 C 1 68.8651 74.7199 29.8634 
502 C 1 68.8645 74.8656 26.0887 
513 C 1 69.1193 73.9155 25.0311 
512 C 1 68.9973 74.4855 23.7137 
520 C 1 73.6153 68.8221 30.0455 
540 C 1 72.8525 69.4572 23.5785 
492 C 1 69.1078 73.3908 30.1228 
504 C 1 69.3745 72.8942 27.6994 
505 C 1 69.5275 72.4881 29.0529 
541 C 1 73.229 69.3178 24.9202 
531 C 1 72.8103 69.2458 27.3223 
519 C 1 72.438 69.5026 29.8033 
514 C 1 69.5948 72.6175 25.2862 
518 C 1 72.0187 69.7686 28.4227 
530 C 1 72.3704 69.5971 26.0171 
515 C 1 69.6769 72.021 26.5773 
506 C 1 70.2493 71.2764 29.2424 
507 C 1 70.5688 70.9894 30.6015 
508 C 1 71.5698 69.979 30.8596 
516 C 1 70.5221 70.902 26.8651 
517 C 1 70.8987 70.6582 28.1684 
527 C 1 69.9545 71.8278 24.1817 
528 C 1 70.8645 70.6855 24.3573 
529 C 1 71.1446 70.3436 25.6952 
4699 H 2 73.1282 74.695 29.9191 
4700 H 2 73.0937 74.2357 28.4769 
569 C 1 79.5502 68.8409 24.9383 
548 C 1 79.9173 68.7716 30.0663 
560 C 1 80.2507 69.1411 27.6892 
561 C 1 80.7591 69.3101 29.0175 
570 C 1 80.8008 69.4714 25.2643 
571 C 1 81.1076 69.7569 26.6711 
579 C 1 81.4407 70.197 24.188 
585 C 1 82.7345 72.1333 23.4651 
562 C 1 81.7917 70.3576 29.3379 
572 C 1 82.002 70.7941 26.9422 
563 C 1 81.9177 70.7544 30.6884 
573 C 1 82.1645 71.2361 28.3301 
580 C 1 82.3232 71.2389 24.5429 
574 C 1 82.7074 72.4813 28.6409 
575 C 1 82.7462 72.8961 29.9956 
581 C 1 82.6416 71.5839 25.8612 
582 C 1 83.1224 72.9031 26.218 
583 C 1 83.0335 73.3472 27.5471 
586 C 1 83.1836 73.4392 23.8016 
587 C 1 83.2095 73.8683 25.1849 
564 C 1 82.4923 71.9936 30.9967 
576 C 1 82.9021 74.2711 30.2618 
584 C 1 83.0798 74.72 27.8633 
480 C 1 68.7211 75.6397 30.9652 
4698 O 3 73.029 75.0187 29.0237 
490 C 1 68.8806 75.1782 28.5527 
501 C 1 68.7742 76.2381 25.9084 
500 C 1 68.7979 76.805 24.5799 
489 C 1 68.9656 76.5528 28.3362 
479 C 1 68.8776 77.0575 30.7294 
488 C 1 68.9398 77.0435 27.0011 
478 C 1 69.1378 77.5303 29.3756 
499 C 1 69.172 78.1237 24.3246 
487 C 1 69.4128 78.4158 26.7601 
477 C 1 69.6789 78.815 29.1494 
486 C 1 69.5899 78.9397 25.448 
464 C 1 69.9898 79.6383 30.2335 
476 C 1 69.9268 79.1672 27.8014 
485 C 1 70.3828 80.0384 25.2062 
475 C 1 70.7 80.3751 27.6367 
463 C 1 70.8122 80.7866 29.9833 
484 C 1 70.6901 80.4552 23.8724 
474 C 1 71.0341 80.6997 26.2473 
462 C 1 71.224 81.1477 28.6725 
421 C 1 80.6409 81.1152 29.3898 
430 C 1 80.6283 81.0927 25.6251 
420 C 1 80.9877 80.822 28.0417 
408 C 1 81.1988 80.3409 30.4005 
429 C 1 81.5032 80.0078 25.3324 
588 C 1 83.2092 75.2497 25.5147 
397 C 1 82.9601 75.2216 29.2439 
427 C 1 82.5678 78.52 23.7139 
428 C 1 81.8732 79.715 23.9561 
419 C 1 81.7596 79.6954 27.6959 
418 C 1 82.0119 79.2279 26.4101 
406 C 1 82.2555 78.8695 28.7308 
407 C 1 81.9372 79.2045 30.1394 
398 C 1 82.9393 76.6629 29.5185 
399 C 1 82.8916 77.0449 30.8982 
403 C 1 83.0699 75.6943 26.8318 
404 C 1 82.8345 77.0368 27.1067 
405 C 1 82.6793 77.5326 28.4263 
415 C 1 83.1805 76.176 24.4538 
416 C 1 82.7831 77.5369 24.7323 
417 C 1 82.484 77.9387 26.0518 
400 C 1 82.4455 78.3153 31.153 
483 C 1 71.726 81.4359 23.6427 
473 C 1 72.142 81.5111 26.0786 
461 C 1 72.3935 81.9292 28.5007 
451 C 1 72.8605 82.0638 30.8471 
452 C 1 71.5792 81.3503 31.0714 
472 C 1 72.5689 81.7957 24.7992 
460 C 1 72.8803 82.0923 27.1034 
471 C 1 73.8463 82.2955 24.4916 
459 C 1 74.1638 82.7341 26.7988 
450 C 1 73.3065 82.3462 29.5407 
449 C 1 74.5681 82.9113 29.287 
458 C 1 74.6741 82.7778 25.5031 
455 C 1 77.8763 82.5484 23.6824 
447 C 1 76.4998 83.0972 27.6644 
424 C 1 77.742 82.6192 31.1885 
422 C 1 79.5491 81.9852 29.6369 
431 C 1 80.3018 81.415 26.9865 
434 C 1 77.4219 82.9881 28.8023 
446 C 1 76.9678 83.0374 26.3147 
448 C 1 75.0785 83.0586 27.9176 
432 C 1 79.1359 82.2711 27.2196 
457 C 1 76.0521 82.9848 25.2796 
443 C 1 80.0224 81.7192 24.5379 
435 C 1 76.9005 82.9858 30.0915 
433 C 1 78.6882 82.4551 28.5457 
436 C 1 75.4595 82.9522 30.3141 
445 C 1 78.3516 82.6452 26.122 
423 C 1 79.1252 82.2122 30.9572 
456 C 1 76.5281 82.8776 23.9398 
444 C 1 78.7786 82.389 24.8027 
728 C 1 74.0161 68.2738 38.9291 
750 C 1 74.8671 68.1804 34.0747 
739 C 1 74.8326 67.9983 37.864 
738 C 1 74.3294 68.1216 36.519 
749 C 1 73.5401 68.6569 33.7729 
521 C 1 73.9831 68.5497 31.3713 
737 C 1 73.0292 68.6449 36.2301 
751 C 1 75.2577 68.059 35.4486 
740 C 1 76.2544 67.9457 38.0724 
752 C 1 76.6682 67.9868 35.642 
753 C 1 77.1556 68.0193 37.006 
523 C 1 75.7754 68.0114 32.9859 
522 C 1 75.3209 68.1355 31.6194 
524 C 1 77.1701 68.0136 33.2439 
763 C 1 77.6044 68.1261 34.6087 
754 C 1 78.5352 68.2874 37.3138 
537 C 1 78.1115 68.2654 32.2703 
755 C 1 79.0507 68.347 38.6565 
764 C 1 79.0357 68.4404 34.9447 
765 C 1 79.5001 68.5552 36.2831 
538 C 1 79.4427 68.6299 32.5447 
699 C 1 68.743 73.9215 38.7102 
510 C 1 73.1734 68.8954 32.4758 
698 C 1 68.7596 74.4251 37.338 
708 C 1 68.8463 74.0684 34.9543 
709 C 1 68.9507 73.5739 36.2316 
721 C 1 69.1484 73.2372 33.8363 
482 C 1 68.9929 73.7593 32.5721 
727 C 1 72.7352 68.8624 38.6248 
736 C 1 72.744 69.0113 34.8699 
726 C 1 72.2386 69.1476 37.2977 
710 C 1 69.4955 72.3135 36.4909 
509 C 1 71.9733 69.6241 32.1868 
494 C 1 70.1425 71.7753 31.7193 
495 C 1 70.345 71.2966 33.033 
496 C 1 71.2445 70.2007 33.1814 
711 C 1 69.6641 71.8886 37.8416 
712 C 1 70.5633 70.8187 38.1206 
722 C 1 69.7192 71.9683 34.1066 
723 C 1 69.9067 71.4318 35.4276 
724 C 1 70.7999 70.3338 35.6577 
725 C 1 71.1215 70.0465 37.0042 
735 C 1 71.5981 69.7872 34.5865 
700 C 1 69.1842 72.5951 38.9655 
493 C 1 69.4051 73.0205 31.436 
773 C 1 79.8273 68.8976 33.8491 
766 C 1 80.7658 69.2399 36.6067 
767 C 1 81.0639 69.617 37.9318 
549 C 1 80.2538 69.072 31.388 
774 C 1 81.0012 69.6403 34.1475 
756 C 1 80.2946 69.0476 39.0028 
775 C 1 81.3482 69.9441 35.5131 
550 C 1 81.2686 70.0326 31.7276 
551 C 1 81.5928 70.4274 33.0986 
768 C 1 81.9506 70.6651 38.1887 
552 C 1 82.3838 71.5217 33.4433 
565 C 1 82.686 72.3569 32.3687 
566 C 1 83.2085 73.7084 32.6558 
776 C 1 82.1307 71.1211 35.8088 
777 C 1 82.3803 71.4992 37.1393 
778 C 1 82.8721 72.7585 37.4773 
779 C 1 82.9748 73.2413 38.7947 
781 C 1 82.6065 71.913 34.7879 
782 C 1 83.1585 73.251 35.0866 
783 C 1 83.0679 73.6861 36.402 
609 C 1 83.2271 74.1746 33.9924 
393 C 1 83.0727 74.6666 31.5977 
780 C 1 83.0452 74.6159 39.0578 
481 C 1 68.7484 75.1378 32.2734 
697 C 1 68.7374 75.7968 37.1049 
707 C 1 68.6764 75.4601 34.6456 
468 C 1 68.6833 76.0345 33.3345 
696 C 1 68.7559 76.3428 35.8 
684 C 1 68.9262 76.6956 38.2066 
467 C 1 68.9468 77.4259 33.1321 
695 C 1 69.082 77.6965 35.5 
466 C 1 69.1393 77.922 31.7918 
694 C 1 69.3443 78.2071 34.2015 
683 C 1 69.2436 78.0922 37.9056 
682 C 1 69.3705 78.5827 36.5684 
454 C 1 70.2446 79.9191 32.6512 
465 C 1 69.7278 79.2546 31.5595 
681 C 1 70.1998 79.7642 36.3779 
693 C 1 69.9019 79.4919 34.004 
670 C 1 70.8854 80.4727 37.4155 
680 C 1 70.5778 80.2369 35.0384 
671 C 1 70.554 80.0619 38.7609 
453 C 1 71.2215 80.945 32.419 
672 C 1 69.6883 78.9333 38.9618 
679 C 1 71.6183 81.1618 34.7703 
626 C 1 80.5584 80.9289 36.8089 
627 C 1 80.136 81.22 38.1667 
409 C 1 80.9306 80.6667 31.7332 
637 C 1 81.2923 80.3627 34.1102 
625 C 1 81.5193 79.8917 36.5328 
402 C 1 81.5896 79.9943 32.7867 
784 C 1 83.0083 75.0699 36.6956 
624 C 1 81.821 79.5883 35.1735 
401 C 1 82.2527 78.7728 32.5401 
614 C 1 81.8971 79.0718 37.5605 
623 C 1 82.4376 78.3342 34.8261 
394 C 1 83.1299 76.0624 31.8686 
395 C 1 83.0157 76.5861 33.2687 
396 C 1 82.6378 77.8752 33.5334 
599 C 1 82.9364 75.5346 38.0392 
600 C 1 82.7104 76.9157 38.2876 
610 C 1 83.1169 75.5582 34.2973 
611 C 1 82.958 76.0444 35.631 
612 C 1 82.5836 77.3494 35.8712 
613 C 1 82.402 77.7673 37.221 
615 C 1 81.7104 79.4528 38.8689 
669 C 1 71.9718 81.3603 37.1596 
440 C 1 72.0077 81.4862 33.4906 
668 C 1 72.3946 81.6819 35.8539 
656 C 1 72.7182 81.828 38.2919 
439 C 1 73.2501 82.146 33.285 
438 C 1 73.7172 82.3196 31.9483 
655 C 1 74.0271 82.3851 37.9983 
666 C 1 74.1163 82.5037 34.3672 
667 C 1 73.6544 82.2856 35.6615 
654 C 1 74.5616 82.4937 36.6721 
437 C 1 74.9697 82.8315 31.7011 
638 C 1 80.2774 81.2923 34.3598 
410 C 1 79.8968 81.6397 31.9828 
639 C 1 79.8452 81.4926 35.6859 
665 C 1 75.4561 82.8342 34.0692 
411 C 1 79.4553 81.7794 33.3217 
628 C 1 78.944 82.008 38.4012 
426 C 1 75.8884 82.9819 32.7327 
642 C 1 76.818 82.7466 37.538 
652 C 1 76.4114 82.7958 35.0669 
653 C 1 75.9524 82.7154 36.4305 
412 C 1 78.1838 82.2761 33.5329 
425 C 1 77.298 82.7747 32.5096 
640 C 1 78.615 82.2446 35.9896 
641 C 1 78.1953 82.4796 37.3104 
651 C 1 77.8041 82.4503 34.8945 
643 C 1 76.2566 82.6932 38.8625 
729 C 1 74.5337 68.1186 40.2102 
717 C 1 74.0697 68.2578 42.6017 
945 C 1 73.6289 68.3627 45.0284 
946 C 1 74.9348 67.9813 45.3217 
716 C 1 73.6473 68.4672 41.2514 
706 C 1 73.2466 68.6159 43.7343 
932 C 1 72.809 68.7313 46.098 
718 C 1 75.4032 67.8652 42.9055 
947 C 1 75.417 67.896 46.6633 
719 C 1 75.9072 67.8384 44.2714 
720 C 1 77.2912 67.9188 44.5882 
731 C 1 76.4057 67.821 41.8329 
730 C 1 75.9014 67.9916 40.5034 
959 C 1 77.7036 68.078 45.9698 
741 C 1 76.8215 67.8903 39.4089 
732 C 1 77.7944 67.9028 42.1656 
733 C 1 78.2746 67.8888 43.5125 
742 C 1 78.2206 67.9607 39.7607 
743 C 1 78.6875 68.1135 41.1012 
960 C 1 79.0279 68.5252 46.2245 
734 C 1 79.5468 68.442 43.7881 
744 C 1 79.9448 68.7464 41.4069 
677 C 1 68.6503 74.6711 43.4373 
904 C 1 68.7402 73.6584 46.1878 
687 C 1 68.6639 74.2919 41.0918 
686 C 1 68.6016 74.8396 39.8094 
678 C 1 68.9018 73.2308 43.7462 
688 C 1 69.062 72.9823 41.3015 
917 C 1 69.0165 72.7599 45.1065 
715 C 1 72.4199 69.1887 41.045 
705 C 1 72.0297 69.2879 43.4347 
689 C 1 69.2909 72.4352 42.6582 
714 C 1 72.054 69.5443 39.7155 
931 C 1 71.5942 69.5325 45.8309 
701 C 1 69.4272 72.1069 40.2704 
690 C 1 69.9556 71.166 42.8829 
691 C 1 70.2448 70.8147 44.2339 
692 C 1 71.2509 69.7925 44.4832 
702 C 1 70.2474 71.0015 40.5391 
703 C 1 70.5302 70.4605 41.7924 
704 C 1 71.6331 69.6226 42.1334 
713 C 1 70.9233 70.3692 39.4555 
918 C 1 69.6956 71.5139 45.3158 
919 C 1 70.0012 71.1853 46.7012 
4756 H 2 73.8616 74.3988 46.4257 
969 C 1 79.8698 68.8646 45.1202 
745 C 1 80.3955 68.8848 42.7188 
757 C 1 80.6367 69.3241 40.3499 
970 C 1 80.8962 69.7729 45.4113 
971 C 1 81.2197 70.0685 46.7726 
746 C 1 81.3371 69.9352 42.9613 
747 C 1 81.5867 70.3437 44.3305 
758 C 1 81.6232 70.273 40.646 
748 C 1 82.2764 71.5339 44.668 
759 C 1 81.9136 70.6306 41.9419 
760 C 1 82.5909 71.887 42.2073 
761 C 1 82.6238 72.3965 43.6117 
762 C 1 83.0561 73.7757 43.9084 
769 C 1 82.1351 71.0362 39.5486 
770 C 1 82.7274 72.3573 39.8228 
771 C 1 82.8968 72.8186 41.158 
977 C 1 82.5658 71.9047 46.0009 
978 C 1 83.0528 73.259 46.2383 
805 C 1 83.116 74.2141 45.203 
772 C 1 83.1521 74.1669 41.4707 
589 C 1 83.1112 74.6782 42.8397 
903 C 1 68.6721 75.0727 45.9133 
664 C 1 68.6486 75.5678 44.5551 
676 C 1 68.5579 75.2305 42.1139 
675 C 1 68.7201 76.6258 41.9124 
685 C 1 68.771 76.2545 39.5848 
674 C 1 68.866 77.1654 40.6088 
663 C 1 68.8354 76.9594 44.3348 
662 C 1 68.9847 77.4898 43.0126 
890 C 1 69.2332 77.8143 45.4173 
673 C 1 69.387 78.4806 40.2933 
650 C 1 70.2236 79.3941 43.855 