ITEM: TIMESTEP
1339764
ITEM: NUMBER OF ATOMS
5084
ITEM: BOX BOUNDS pp pp pp
0.0000000000000000e+00 1.5000000000000000e+02
0.0000000000000000e+00 1.5000000000000000e+02
0.0000000000000000e+00 2.8837799999999999e+02
ITEM: ATOMS id element type x y z 
266 C 1 71.1687 74.2027 1.43622 
267 C 1 71.927 73.5935 2.41439 
271 C 1 71.0667 74.2705 6.59479 
321 C 1 73.5022 72.8584 0.647887 
322 C 1 73.1684 72.9927 2.07068 
323 C 1 74.187 72.6888 3.0468 
324 C 1 71.6085 73.7393 3.81199 
325 C 1 72.4062 73.2016 4.83811 
326 C 1 72.0798 73.3624 6.19847 
327 C 1 73.0181 72.9517 7.21245 
381 C 1 73.7383 72.7231 4.41682 
385 C 1 72.668 73.0675 8.56487 
383 C 1 74.3724 72.7094 6.79929 
328 C 1 70.7635 74.5504 7.96109 
382 C 1 74.7055 72.5843 5.40916 
377 C 1 74.8493 72.5227 0.275862 
269 C 1 70.6472 74.7631 4.1832 
329 C 1 71.5046 73.823 8.9274 
265 C 1 71.3481 73.9247 0.0243709 
384 C 1 75.336 72.6462 7.83609 
379 C 1 75.507 72.4885 2.64787 
378 C 1 75.8561 72.4949 1.29705 
380 C 1 76.4656 72.7336 3.6603 
434 C 1 77.1402 72.8877 0.864967 
435 C 1 78.0512 73.3927 1.86072 
436 C 1 77.744 73.2278 3.26948 
437 C 1 78.5196 73.8947 4.26734 
438 C 1 76.0927 72.6347 5.03679 
439 C 1 77.1083 72.8427 6.00244 
440 C 1 76.7382 72.8485 7.38503 
441 C 1 77.6282 73.2752 8.41786 
494 C 1 78.3351 73.5718 5.63176 
496 C 1 78.7478 74.1095 8.02982 
490 C 1 78.9781 74.4072 1.48694 
495 C 1 79.0351 74.2957 6.63965 
433 C 1 79.1007 74.7372 0.110562 
270 C 1 70.4598 75.0599 5.58869 
3679 H 2 74.9509 80.5738 1.86054 
210 C 1 70.3394 75.2858 1.82593 
105 C 1 69.9555 79.927 0.551821 
155 C 1 69.7186 77.5695 1.17989 
156 C 1 69.9837 80.2978 1.94912 
157 C 1 69.6135 79.3473 2.98569 
158 C 1 69.9156 79.6089 4.32973 
159 C 1 69.6017 78.697 5.38978 
161 C 1 70.2026 80.3486 7.07963 
209 C 1 70.0758 76.2718 0.820784 
211 C 1 69.4865 77.9839 2.53654 
212 C 1 69.6391 76.9974 3.57865 
213 C 1 69.614 77.3177 4.96025 
214 C 1 69.7991 76.299 5.96796 
215 C 1 69.664 79.0713 6.73018 
216 C 1 69.5228 78.1004 7.72123 
268 C 1 70.22 75.7068 3.17577 
272 C 1 69.6667 76.6728 7.35093 
273 C 1 70.0566 75.7971 8.36456 
162 C 1 70.4943 80.692 8.4829 
109 C 1 70.5614 80.8169 4.66873 
3680 H 2 74.2324 79.482 1.09673 
3691 H 2 73.0123 79.2295 7.06203 
3665 H 2 73.4992 79.4405 3.98085 
3664 H 2 72.5254 78.6703 4.84716 
3648 O 3 72.6384 78.5104 1.20718 
3663 O 3 72.8044 78.7834 3.93854 
3690 O 3 72.5459 78.4025 6.94077 
3650 H 2 72.4543 78.7609 2.11247 
3692 H 2 72.0827 78.2649 7.76705 
3649 H 2 72.9973 77.6253 1.27137 
3683 H 2 73.3381 77.0082 6.75457 
3668 H 2 73.4982 77.125 3.89555 
154 C 1 69.5999 78.5904 0.177011 
3682 H 2 73.3079 75.8177 5.8199 
3667 H 2 73.1833 75.8058 3.22282 
3666 O 3 73.6604 76.1839 3.96151 
3651 O 3 73.5362 76.0938 0.852421 
3710 H 2 73.5922 75.798 8.64222 
3681 O 3 73.6959 76.1281 6.63803 
3653 H 2 74.483 75.9697 0.785611 
3669 O 3 74.4304 80.2645 7.06262 
3702 O 3 74.901 80.3503 3.83059 
3704 H 2 74.8155 80.8301 4.65443 
3671 H 2 74.5372 80.637 7.93785 
3678 O 3 74.8646 80.1922 0.986955 
160 C 1 70.7539 81.165 6.02185 
3688 H 2 75.3996 76.0567 3.91022 
3658 H 2 75.3659 75.8576 6.85034 
3661 H 2 77.2877 78.5816 0.128376 
3703 H 2 75.5445 79.6667 4.01669 
3670 H 2 75.1709 79.6659 6.96451 
3662 H 2 76.3293 79.2084 1.11853 
492 C 1 79.3804 75.0173 3.86348 
3677 H 2 77.8936 78.7124 3.98335 
3675 O 3 77.0611 78.5387 4.42272 
3674 H 2 77.0459 78.878 6.30984 
3672 O 3 76.7076 78.77 7.19872 
3660 O 3 77.0872 78.6264 1.06326 
3673 H 2 76.5015 77.8376 7.26545 
3676 H 2 76.7689 77.7019 4.06132 
3655 H 2 76.6619 77.1075 1.16347 
3657 O 3 76.305 75.9263 7.02235 
3659 H 2 76.7144 75.8242 6.16318 
3687 O 3 76.3336 75.9937 3.71073 
3689 H 2 76.3759 76.0018 2.7545 
3654 O 3 76.361 76.1993 1.13357 
491 C 1 79.546 75.3091 2.494 
1 C 1 80.1138 78.3637 0.393003 
2 C 1 80.0474 79.3362 1.41087 
3 C 1 80.2095 78.2147 5.53421 
6 C 1 80.1434 78.9597 2.77739 
7 C 1 79.7494 79.8738 3.81206 
8 C 1 79.8982 79.5709 5.19318 
10 C 1 80.2914 77.8469 6.94461 
11 C 1 80.1605 78.9159 7.94162 
22 C 1 79.5652 80.1706 7.55254 
489 C 1 79.9597 76.9706 0.70788 
493 C 1 79.9667 75.8669 4.85513 
544 C 1 79.988 76.5853 2.12573 
545 C 1 80.1598 77.5887 3.10574 
546 C 1 80.1386 77.2353 4.53322 
547 C 1 79.7992 75.4943 6.24999 
548 C 1 80.0924 76.4939 7.27973 
549 C 1 79.9535 76.1915 8.66196 
9 C 1 79.4335 80.5171 6.17494 
4 C 1 79.459 80.6103 1.0722 
23 C 1 79.079 81.0879 8.59169 
3695 H 2 77.0807 78.9512 8.9125 
18 C 1 79.0167 81.0829 3.45386 
3656 H 2 76.8825 75.7964 0.439388 
107 C 1 70.8649 81.3386 2.33849 
108 C 1 71.138 81.6285 3.66487 
113 C 1 71.3542 81.7237 8.85698 
65 C 1 73.7231 82.9504 0.618935 
66 C 1 72.7761 82.687 1.68177 
67 C 1 73.118 82.9502 3.0503 
68 C 1 72.1534 82.5332 4.01404 
70 C 1 73.8583 83.2479 5.74677 
71 C 1 74.3184 83.3186 7.12496 
72 C 1 73.3344 83.0605 8.14993 
106 C 1 71.6042 81.9867 1.32945 
110 C 1 72.5267 82.7831 5.38758 
111 C 1 71.7412 82.1779 6.44025 
112 C 1 72.1012 82.3587 7.84139 
38 C 1 74.4728 83.2984 3.33672 
69 C 1 74.8686 83.3 4.72634 
5 C 1 78.7209 81.3119 2.07134 
36 C 1 75.1132 83.0874 0.963393 
20 C 1 78.5186 81.5625 5.8347 
37 C 1 75.4907 83.2227 2.30005 
15 C 1 77.4595 82.3556 0.304394 
16 C 1 77.696 82.2194 1.67459 
17 C 1 76.8289 82.7046 2.66266 
19 C 1 78.2918 81.8318 4.47634 
21 C 1 77.8085 82.3202 6.81411 
39 C 1 77.1151 82.5676 4.0263 
40 C 1 76.2392 83.0437 5.04225 
41 C 1 76.6326 82.9685 6.42223 
42 C 1 75.6936 83.2511 7.47748 
43 C 1 78.1836 82.1443 8.19299 
73 C 1 76.0971 83.1906 8.86799 
330 C 1 71.1569 74.0089 10.3497 
331 C 1 72.0736 73.4652 11.3871 
335 C 1 71.233 74.219 15.5458 
386 C 1 73.6004 72.7018 9.56885 
387 C 1 73.2837 72.8466 10.9793 
388 C 1 74.2786 72.5941 11.9419 
389 C 1 71.7551 73.745 12.7395 
390 C 1 72.6208 73.1579 13.7312 
391 C 1 72.2928 73.3631 15.1174 
392 C 1 73.2341 72.9423 16.1142 
446 C 1 73.8378 72.5534 13.3112 
450 C 1 72.86 73.1187 17.4923 
393 C 1 70.884 74.4527 16.9077 
448 C 1 74.5521 72.5527 15.7263 
333 C 1 70.724 74.6992 13.1303 
394 C 1 71.6529 73.8187 17.9004 
447 C 1 74.8873 72.47 14.3048 
442 C 1 75.0098 72.4907 9.20578 
443 C 1 76.0158 72.5925 10.2167 
444 C 1 75.6423 72.6779 11.5872 
445 C 1 76.6138 72.9792 12.5668 
449 C 1 75.5647 72.6624 16.7433 
498 C 1 77.3104 73.0935 9.84135 
499 C 1 78.2219 73.64 10.7646 
500 C 1 77.8354 73.5349 12.1635 
501 C 1 78.6122 74.1643 13.1794 
502 C 1 76.2745 72.7307 13.946 
503 C 1 77.189 73.1447 14.9518 
504 C 1 76.9092 72.9543 16.3665 
505 C 1 77.7474 73.4805 17.3639 
555 C 1 78.3336 73.8978 14.564 
557 C 1 78.7633 74.431 16.9776 
556 C 1 79.0624 74.6249 15.5467 
551 C 1 79.2091 74.6171 10.4323 
497 C 1 79.5062 74.8493 9.04471 
334 C 1 70.5853 75.0131 14.5154 
275 C 1 70.3318 75.128 10.7047 
217 C 1 69.6576 78.4457 9.08361 
332 C 1 70.0916 75.447 12.101 
163 C 1 69.9719 79.7886 9.4737 
218 C 1 69.5663 77.4283 10.0877 
219 C 1 70.1097 80.0957 10.852 
220 C 1 69.7947 79.1431 11.9134 
221 C 1 69.949 79.5821 13.2591 
222 C 1 69.6879 78.5499 14.2576 
224 C 1 70.2426 80.3116 16.0034 
225 C 1 70.4616 80.5697 17.396 
274 C 1 69.9063 76.0828 9.72521 
276 C 1 69.5937 77.769 11.448 
277 C 1 69.7058 76.753 12.4648 
278 C 1 69.6605 77.1763 13.8153 
279 C 1 69.9861 76.238 14.858 
280 C 1 69.8269 78.9808 15.6025 
281 C 1 69.808 77.9833 16.5841 
336 C 1 69.9205 76.6048 16.2522 
337 C 1 70.2388 75.6611 17.2802 
167 C 1 70.5221 80.8307 13.6378 
3711 O 3 73.5993 79.426 15.0957 
3713 H 2 73.4351 78.5357 14.7848 
3712 H 2 73.8938 79.901 14.3186 
3699 O 3 74.548 80.0986 9.73142 
3700 H 2 73.7931 79.5174 9.82433 
3717 O 3 74.983 79.7639 12.841 
223 C 1 70.773 81.1799 15.0006 
3718 H 2 74.4335 79.0417 12.5366 
3686 H 2 72.2124 78.2792 10.8239 
3684 O 3 72.6192 78.422 9.9693 
3685 H 2 72.9973 77.5734 9.73873 
3707 H 2 73.1343 76.6566 13.6534 
3705 O 3 73.1117 77.2143 12.8757 
3744 O 3 73.6432 76.2373 15.405 
3745 H 2 73.596 76.6291 16.277 
3743 H 2 72.9709 79.444 17.0785 
3706 H 2 73.8224 76.8866 12.3247 
3708 O 3 73.7598 75.9771 9.56746 
3746 H 2 74.5778 76.2221 15.1989 
3709 H 2 74.7133 75.9527 9.64778 
3701 H 2 74.6456 80.5047 10.5927 
165 C 1 70.8824 81.2274 11.2193 
282 C 1 69.8373 78.3198 17.9961 
3741 O 3 73.371 79.3147 17.9384 
3742 H 2 74.312 79.2914 17.7642 
3728 H 2 76.8287 79.5768 17.7892 
3723 O 3 75.7343 75.9444 12.6022 
3698 H 2 76.6834 76.1336 9.11121 
3719 H 2 75.8643 79.3929 12.8849 
3694 H 2 76.0369 79.4627 9.88247 
3740 H 2 75.8991 79.149 15.3013 
3720 O 3 77.18 78.2852 13.1205 
3693 O 3 76.8571 78.9707 9.84301 
3738 O 3 76.6555 79.3219 15.8619 
3739 H 2 77.3232 79.6614 15.2661 
3721 H 2 77.775 78.2344 12.3724 
3722 H 2 76.7077 77.4527 13.1084 
3697 H 2 76.8235 77.2 10.1766 
3725 H 2 76.0386 75.7013 11.7278 
3724 H 2 76.1741 75.3293 13.189 
3696 O 3 76.4966 76.3119 10.0329 
3730 H 2 76.4101 77.386 15.7028 
3731 H 2 76.348 76.2165 16.6622 
553 C 1 79.4883 75.2418 12.8607 
3729 O 3 76.3749 76.4298 15.7294 
12 C 1 80.2903 78.5858 9.34603 
13 C 1 80.0026 79.5631 10.2988 
14 C 1 80.2123 78.5081 14.4475 
26 C 1 80.0775 79.2411 11.7171 
27 C 1 79.7294 80.2128 12.7546 
28 C 1 79.9388 79.8864 14.1122 
30 C 1 80.2371 78.1918 15.8504 
31 C 1 80.0476 79.1693 16.8839 
51 C 1 79.5469 80.4589 16.5294 
550 C 1 80.2157 77.1889 9.69517 
552 C 1 79.6018 75.5369 11.4636 
554 C 1 79.8897 76.1802 13.8573 
597 C 1 80.1175 76.8461 11.0457 
598 C 1 80.2881 77.8611 12.074 
599 C 1 80.2476 77.4765 13.514 
600 C 1 79.7274 75.8357 15.1797 
601 C 1 80.0135 76.8025 16.2461 
602 C 1 79.9934 76.4422 17.6022 
29 C 1 79.4446 80.7311 15.112 
24 C 1 79.4413 80.8419 9.97424 
558 C 1 79.4078 75.2052 17.9912 
166 C 1 71.1839 81.5085 12.6089 
171 C 1 71.3096 81.6138 17.7743 
76 C 1 74.466 83.3271 12.2853 
114 C 1 73.696 83.1709 9.56132 
115 C 1 72.7717 82.6884 10.5657 
116 C 1 73.1375 82.9152 11.9664 
117 C 1 72.2378 82.3852 12.958 
119 C 1 73.8374 83.1653 14.6954 
120 C 1 74.227 83.3317 16.0617 
121 C 1 73.3003 82.9883 17.1234 
164 C 1 71.6472 81.9023 10.2335 
168 C 1 72.54 82.6683 14.3571 
169 C 1 71.7283 82.1241 15.3821 
170 C 1 72.0705 82.3138 16.7726 
118 C 1 74.8881 83.267 13.6706 
77 C 1 77.128 82.779 13.0183 
50 C 1 77.9429 82.5657 15.7517 
25 C 1 78.7961 81.5977 10.9508 
48 C 1 78.3603 82.0749 13.3554 
52 C 1 79.1438 81.2867 17.5881 
78 C 1 76.2596 83.154 14.0473 
81 C 1 78.219 82.3257 17.1817 
74 C 1 75.1094 83.2752 9.84706 
47 C 1 79.0736 81.3887 12.3632 
122 C 1 76.01 83.1618 17.8435 
75 C 1 75.4604 83.2914 11.2705 
79 C 1 76.5909 83.0153 15.4477 
45 C 1 77.668 82.5154 10.629 
80 C 1 75.6271 83.2719 16.4636 
49 C 1 78.673 81.856 14.7588 
46 C 1 76.7559 82.9025 11.6095 
44 C 1 77.3729 82.7807 9.23339 
395 C 1 71.339 73.9724 19.2885 
396 C 1 72.1664 73.3889 20.3108 
400 C 1 71.3239 74.0902 24.3751 
451 C 1 73.8144 72.8765 18.5048 
452 C 1 73.4708 72.955 19.9052 
454 C 1 71.7653 73.5684 21.6419 
455 C 1 72.7763 73.1465 22.6146 
456 C 1 72.4226 73.24 24.0008 
457 C 1 73.3534 72.7885 24.9906 
458 C 1 71.1273 74.3413 25.7756 
459 C 1 71.7915 73.6008 26.814 
510 C 1 74.0999 72.6831 22.1894 
514 C 1 73.0189 72.8739 26.4072 
398 C 1 70.8105 74.5587 22.0382 
453 C 1 74.51 72.6999 20.8261 
399 C 1 70.6675 74.8656 23.4265 
512 C 1 74.6847 72.6721 24.6124 
511 C 1 75.1051 72.6658 23.2048 
507 C 1 76.1622 72.8401 19.1144 
508 C 1 75.8528 72.8089 20.5041 
509 C 1 76.8784 72.9733 21.4836 
513 C 1 75.6988 72.7489 25.6206 
559 C 1 77.4743 73.2379 18.7633 
560 C 1 78.2992 73.8306 19.759 
561 C 1 78.0826 73.6097 21.1221 
562 C 1 78.9089 74.159 22.1281 
563 C 1 76.4932 72.8523 22.8826 
564 C 1 77.4157 73.1955 23.8789 
565 C 1 77.0401 73.103 25.2558 
566 C 1 77.9281 73.5892 26.2336 
608 C 1 78.6266 73.9018 23.4919 
610 C 1 78.9999 74.4424 25.9232 
609 C 1 79.2789 74.7286 24.5441 
506 C 1 75.1647 72.7334 18.1432 
567 C 1 75.3882 72.6099 26.9994 
604 C 1 79.255 74.8571 19.3579 
339 C 1 70.5581 75.1089 19.6589 
3715 H 2 73.4587 75.5098 20.0965 
3781 H 2 73.8344 75.5145 25.4508 
397 C 1 70.3953 75.4605 21.0285 
402 C 1 70.297 75.4992 26.1266 
226 C 1 70.086 79.6503 18.397 
230 C 1 70.4134 80.7919 22.5384 
283 C 1 69.8626 77.3618 18.9873 
284 C 1 70.2271 80.1377 19.7708 
285 C 1 69.8902 79.1431 20.7367 
286 C 1 69.8864 79.5194 22.1396 
287 C 1 69.7631 78.4934 23.1408 
289 C 1 70.152 80.1669 24.8772 
290 C 1 70.4578 80.42 26.3064 
338 C 1 70.1152 76.015 18.6815 
340 C 1 69.8719 77.7372 20.3647 
341 C 1 69.9882 76.764 21.3931 
342 C 1 69.9385 77.134 22.773 
343 C 1 70.1557 76.1569 23.7497 
344 C 1 69.7797 78.8671 24.5059 
345 C 1 69.7548 77.8643 25.5299 
401 C 1 70.0376 76.4916 25.0934 
346 C 1 69.7486 78.1225 26.9088 
288 C 1 70.5725 81.1079 23.8985 
3766 H 2 73.1871 77.6728 23.2777 
3769 H 2 73.9579 75.7302 22.8378 
3768 O 3 74.0997 76.1706 23.6758 
3714 O 3 73.5522 76.131 20.8187 
3716 H 2 73.546 76.9908 20.3981 
3765 O 3 72.7536 78.5254 23.2397 
3767 H 2 72.4717 78.6109 22.329 
3764 H 2 72.4285 78.5087 25.2929 
3732 O 3 72.7619 78.7324 20.5768 
3733 H 2 72.5269 78.9311 19.6704 
3734 H 2 73.2748 79.4882 20.8629 
3749 H 2 74.2699 79.4801 23.689 
3747 O 3 74.9414 80.1619 23.7114 
3762 O 3 72.8283 78.3512 26.1483 
3779 H 2 74.7575 80.6822 25.785 
3778 H 2 74.1548 79.4048 26.3298 
3754 H 2 74.8561 76.7712 18.3289 
3777 O 3 74.7326 80.1303 26.5666 
3760 H 2 74.9573 80.287 19.9667 
3759 O 3 74.8374 80.2703 20.9162 
3748 H 2 74.8164 80.6487 22.8968 
3763 H 2 73.1419 77.448 26.104 
3780 O 3 73.9934 75.7888 26.354 
3782 H 2 74.9221 76.0199 26.3747 
3755 H 2 73.5821 77.5618 18.1197 
3753 O 3 73.925 76.6682 18.1323 
3770 H 2 75.0516 76.214 23.766 
3736 H 2 76.5893 77.8444 18.5214 
3735 O 3 76.5922 76.8873 18.5325 
3752 H 2 75.4132 75.966 21.0567 
3761 H 2 75.5719 79.7499 21.2417 
3751 H 2 76.5809 76.1092 22.0095 
3750 O 3 76.3635 76.0789 21.0778 
3772 H 2 77.0007 75.8513 24.7282 
3771 O 3 76.8225 76.3079 23.906 
3773 H 2 77.0977 77.2102 24.0681 
3776 H 2 76.423 79.494 24.0675 
3756 O 3 76.95 78.5377 21.4034 
3774 O 3 77.1856 78.946 24.2527 
3775 H 2 77.2816 78.9819 25.2044 
3758 H 2 77.1211 78.6716 22.3356 
3757 H 2 76.9651 77.5873 21.2907 
606 C 1 79.6439 75.3147 21.8079 
32 C 1 80.1054 78.7393 18.2428 
33 C 1 79.8916 79.6652 19.311 
34 C 1 80.1804 77.9999 21.0827 
35 C 1 80.2437 78.649 23.4706 
55 C 1 80.0192 79.3501 20.6977 
56 C 1 79.6824 80.2701 21.6819 
57 C 1 79.8719 79.9404 23.0946 
59 C 1 80.3925 78.247 24.8374 
60 C 1 80.1026 79.2348 25.8854 
89 C 1 79.6297 80.5122 25.5229 
603 C 1 80.215 77.3774 18.6422 
605 C 1 79.8542 75.7155 20.4266 
607 C 1 80.0192 76.267 22.767 
641 C 1 80.1472 77.0436 20.0424 
642 C 1 80.1945 77.6305 22.5029 
643 C 1 80.0001 75.8798 24.1702 
644 C 1 80.248 76.8228 25.2213 
645 C 1 80.1143 76.5107 26.6034 
53 C 1 79.3632 80.9808 18.9422 
58 C 1 79.4116 80.8096 24.1389 
3737 H 2 76.7633 76.6585 19.4461 
611 C 1 79.5922 75.2324 26.9111 
3791 H 2 76.309 79.4074 26.9887 
3727 H 2 77.2515 79.8118 19.2237 
3726 O 3 76.4788 79.7601 18.6611 
3783 O 3 76.669 76.1897 26.7864 
3785 H 2 76.8301 77.1291 26.6982 
228 C 1 70.8458 81.343 20.1699 
229 C 1 71.0659 81.6416 21.5221 
234 C 1 71.1747 81.6054 26.6598 
125 C 1 74.4036 83.4048 21.2223 
172 C 1 73.6935 83.1619 18.5111 
173 C 1 72.7436 82.7366 19.5162 
174 C 1 73.0413 82.9294 20.889 
175 C 1 72.178 82.4535 21.8863 
177 C 1 73.7619 83.2248 23.6313 
178 C 1 74.1429 83.1419 25.0133 
179 C 1 73.1722 82.8336 26.0058 
227 C 1 71.583 81.9467 19.1173 
231 C 1 72.4882 82.6706 23.2503 
232 C 1 71.5986 82.126 24.2687 
233 C 1 71.9242 82.2665 25.613 
176 C 1 74.779 83.3764 22.6188 
123 C 1 75.0588 83.3299 18.9145 
85 C 1 78.9589 81.512 21.3571 
124 C 1 75.4384 83.3465 20.2346 
90 C 1 79.1075 81.3171 26.5041 
82 C 1 77.3754 82.8499 18.2304 
129 C 1 75.5173 83.2358 25.3848 
54 C 1 78.7421 81.8175 19.994 
83 C 1 77.634 82.6777 19.6184 
84 C 1 76.7579 83.0826 20.6217 
86 C 1 78.2145 82.26 22.361 
87 C 1 78.556 81.9363 23.7445 
88 C 1 77.7593 82.5759 24.7671 
126 C 1 77.0334 82.9517 22.0222 
127 C 1 76.1001 83.2084 23.048 
128 C 1 76.478 83.0978 24.4107 
130 C 1 78.1153 82.2864 26.0928 
180 C 1 75.9233 83.2437 26.76 
460 C 1 71.5659 73.8449 28.1697 
461 C 1 72.2767 73.1345 29.172 
463 C 1 71.0214 74.3862 30.9326 
465 C 1 71.4021 73.771 33.3112 
515 C 1 73.9791 72.6161 27.4321 
516 C 1 73.5836 72.6602 28.7948 
518 C 1 72.028 73.4507 30.572 
519 C 1 72.9579 72.914 31.5543 
520 C 1 72.5576 73.0683 32.9644 
521 C 1 73.563 72.772 33.92 
522 C 1 71.1372 74.0547 34.6612 
523 C 1 71.9437 73.4532 35.6995 
571 C 1 74.2759 72.6333 31.1514 
575 C 1 73.2014 72.9346 35.3186 
464 C 1 70.7053 74.569 32.3431 
517 C 1 74.6421 72.5787 29.7849 
404 C 1 70.6145 74.8688 28.5351 
573 C 1 74.9058 72.6348 33.5996 
572 C 1 75.3167 72.6228 32.172 
568 C 1 76.3949 72.8145 27.989 
569 C 1 76.0395 72.6833 29.4262 
570 C 1 77.0381 72.9236 30.392 
574 C 1 75.8975 72.6828 34.6066 
612 C 1 77.6901 73.2811 27.6482 
613 C 1 78.6501 73.7079 28.6926 
614 C 1 78.3363 73.4374 30.0574 
615 C 1 79.0632 74.1577 31.0761 
616 C 1 76.6503 72.8898 31.8105 
617 C 1 77.5777 73.1624 32.8411 
618 C 1 77.3059 72.9332 34.2191 
619 C 1 78.2161 73.4298 35.2542 
651 C 1 78.7062 73.9248 32.4818 
653 C 1 79.2209 74.3722 34.9191 
652 C 1 79.3504 74.6931 33.5379 
647 C 1 79.4655 74.8551 28.3043 
620 C 1 75.5943 72.6525 35.9924 
462 C 1 70.4782 75.1862 29.9137 
467 C 1 70.2635 75.1626 35.044 
291 C 1 70.0523 79.4569 27.2965 
295 C 1 70.4159 80.5232 31.4323 
347 C 1 69.7771 77.1248 27.897 
348 C 1 70.1039 79.8223 28.6774 
349 C 1 69.7735 78.8984 29.717 
350 C 1 69.8893 79.2663 31.0695 
351 C 1 69.7314 78.2121 32.0357 
352 C 1 70.5238 80.7811 32.8371 
353 C 1 69.9952 79.9549 33.857 
354 C 1 70.1955 80.2612 35.2456 
403 C 1 70.0705 75.7731 27.4988 
405 C 1 69.6896 77.5429 29.2821 
406 C 1 69.9233 76.4711 30.2773 
407 C 1 69.7937 76.8262 31.6627 
408 C 1 70.0234 75.8348 32.6399 
409 C 1 69.6557 78.5659 33.4149 
410 C 1 69.5763 77.5658 34.4316 
411 C 1 69.6789 77.9165 35.7963 
466 C 1 69.8737 76.1883 34.0228 
293 C 1 70.8143 80.9883 29.0513 
3802 H 2 73.7794 76.4898 29.1833 
3787 H 2 73.553 76.3568 32.0497 
3786 O 3 74.1052 75.6104 31.8168 
3788 H 2 73.9177 75.4526 30.8915 
3803 H 2 74.0552 75.322 28.2602 
3801 O 3 74.2089 75.6349 29.1516 
3814 H 2 73.8361 75.2745 34.2015 
3796 H 2 72.5957 77.9125 28.2945 
3810 O 3 72.6658 78.0663 31.9897 
3839 H 2 72.1744 78.3833 33.9538 
3795 O 3 73.0511 78.1611 29.0989 
3811 H 2 72.3717 77.9616 31.0849 
3812 H 2 73.2912 78.7902 31.9565 
3797 H 2 73.5195 78.9641 28.8712 
3838 H 2 73.1041 77.421 34.6621 
3837 O 3 72.6924 78.2804 34.7522 
3823 H 2 74.4925 80.179 33.4995 
3822 O 3 74.3982 80.0727 32.553 
3800 H 2 74.848 80.9039 28.6601 
3798 O 3 74.835 80.3432 29.4358 
3813 O 3 73.9873 75.873 34.933 
3824 H 2 74.7142 80.8984 32.1861 
3832 H 2 73.8373 79.7852 35.6856 
3831 O 3 74.6087 80.198 35.2973 
3815 H 2 74.9388 75.9699 34.9712 
3833 H 2 74.9381 80.7818 35.9807 
3789 O 3 77.0242 78.7817 27.1038 
3835 H 2 76.0869 79.0783 35.3002 
3820 H 2 75.7648 75.8872 32.2516 
3806 H 2 75.9275 76.1856 29.3653 
3821 H 2 77.0775 75.733 32.9898 
3805 H 2 76.6979 76.3518 30.6579 
3804 O 3 76.8164 76.2023 29.7199 
3819 O 3 76.6489 76.2497 32.3075 
3784 H 2 76.8719 75.9963 27.7017 
654 C 1 79.6325 75.2971 35.938 
3808 H 2 76.9464 77.9947 32.4612 
3793 H 2 77.022 77.809 29.6482 
3799 H 2 75.6608 79.8606 29.3971 
3809 H 2 76.1916 79.3068 32.4825 
3792 O 3 77.0662 78.7618 29.7279 
3794 H 2 77.4392 78.913 30.5964 
3836 H 2 77.2886 78.9203 34.3931 
3807 O 3 77.0718 78.9386 32.5586 
3790 H 2 77.1754 78.7613 28.0488 
61 C 1 80.2174 78.8536 27.2733 
62 C 1 80.0685 79.8768 28.28 
63 C 1 80.2474 78.0736 30.001 
64 C 1 80.0718 78.6736 32.346 
93 C 1 80.1522 79.5198 29.6512 
94 C 1 79.7014 80.4328 30.6492 
95 C 1 79.7822 80.025 31.9991 
97 C 1 80.0947 78.3547 33.7402 
98 C 1 79.885 79.3381 34.7298 
646 C 1 80.273 77.4758 27.6185 
648 C 1 79.8557 75.7305 29.3081 
649 C 1 79.7431 75.4026 30.6996 
650 C 1 79.968 76.3335 31.7777 
676 C 1 80.1873 77.0481 28.9851 
677 C 1 80.162 77.7248 31.3781 
678 C 1 79.8689 75.9601 33.1836 
679 C 1 80.0962 76.9659 34.1285 
680 C 1 80.0415 76.6498 35.5202 
138 C 1 79.4215 80.6872 34.4354 
96 C 1 79.298 80.9359 33.0134 
91 C 1 79.3848 81.1069 27.9025 
3818 H 2 76.913 77.166 35.3066 
3816 O 3 76.6801 76.2391 35.2529 
3834 O 3 77.0045 78.8058 35.3 
294 C 1 70.9868 81.3474 30.4021 
299 C 1 71.0207 81.3589 35.5546 
292 C 1 71.4726 81.7811 28.0352 
183 C 1 74.1728 83.2371 30.1816 
235 C 1 73.504 82.9703 27.3757 
236 C 1 72.5716 82.5837 28.3654 
237 C 1 72.9204 82.7696 29.7642 
238 C 1 71.9708 82.2987 30.7538 
239 C 1 74.5215 83.2395 31.5921 
240 C 1 73.5353 83.0002 32.6452 
241 C 1 73.9047 82.9726 33.9652 
242 C 1 72.9368 82.7423 35.0103 
296 C 1 72.2507 82.5096 32.1582 
297 C 1 71.4633 81.8525 33.1492 
298 C 1 71.7813 82.0376 34.564 
181 C 1 74.8613 83.2442 27.7447 
185 C 1 75.8758 83.179 31.9294 
184 C 1 76.8182 82.8648 30.898 
136 C 1 78.3483 81.9825 32.6245 
137 C 1 77.5126 82.5592 33.6658 
188 C 1 77.8923 82.4623 35.0748 
139 C 1 78.8455 81.5142 35.4672 
182 C 1 75.145 83.2849 29.1447 
187 C 1 75.2784 83.1876 34.3704 
243 C 1 75.6022 83.2061 35.7409 
135 C 1 78.0613 82.1511 31.2365 
132 C 1 77.5561 82.6606 28.5373 
186 C 1 76.2476 83.0485 33.314 
92 C 1 78.6046 81.7506 28.9068 
134 C 1 78.8222 81.4709 30.297 
131 C 1 77.2335 82.7801 27.1361 
133 C 1 76.5219 83.0347 29.5169 
524 C 1 71.6438 73.7163 37.0557 
525 C 1 72.5248 73.2145 38.0937 
527 C 1 71.1093 74.2556 39.8487 
528 C 1 70.8187 74.4611 41.2407 
529 C 1 71.6113 73.7607 42.231 
576 C 1 74.1746 72.666 36.3655 
577 C 1 73.8471 72.8 37.7468 
579 C 1 72.183 73.4327 39.514 
580 C 1 73.0694 72.8786 40.48 
581 C 1 72.7397 72.9171 41.8599 
582 C 1 73.6518 72.6488 42.9049 
583 C 1 71.299 73.9923 43.6558 
584 C 1 72.1069 73.3682 44.6563 
624 C 1 74.4247 72.6181 40.1309 
628 C 1 73.3476 72.7447 44.3359 
469 C 1 70.7351 74.7333 37.4461 
578 C 1 74.8634 72.6254 38.7362 
626 C 1 75.0077 72.5012 42.4603 
621 C 1 76.5996 72.7646 37.0079 
622 C 1 76.1811 72.6278 38.3892 
623 C 1 77.1451 72.86 39.3854 
625 C 1 75.4126 72.4893 41.1327 
627 C 1 75.9641 72.6992 43.4788 
655 C 1 77.9114 73.2352 36.6348 
656 C 1 78.7131 73.8468 37.6784 
657 C 1 78.3266 73.6414 39.0567 
659 C 1 76.7468 72.7872 40.7416 
660 C 1 77.5835 73.2642 41.7581 
661 C 1 77.2481 73.1415 43.1649 
662 C 1 77.9839 73.8003 44.1329 
686 C 1 78.675 74.1607 41.3948 
658 C 1 78.9874 74.3781 40.0279 
663 C 1 75.665 72.5402 44.8814 
688 C 1 78.934 74.7851 43.7781 
526 C 1 70.4895 75.0645 38.8153 
531 C 1 70.3647 75.0747 44.0171 
3859 H 2 73.1925 77.3021 42.4115 
359 C 1 70.2916 80.2888 40.4111 
412 C 1 69.7581 76.8804 36.7848 
413 C 1 69.9424 79.6499 37.6019 
414 C 1 69.7414 78.6459 38.5685 
415 C 1 69.774 79.0235 39.9684 
416 C 1 69.7399 78.0068 40.9758 
417 C 1 70.4826 80.5612 41.7667 
418 C 1 70.1574 79.6074 42.7586 
419 C 1 70.1238 79.9779 44.1114 
468 C 1 70.1999 75.5396 36.4333 
470 C 1 69.7043 77.2461 38.1704 
471 C 1 69.9258 76.3252 39.241 
472 C 1 69.9104 76.6243 40.6344 
473 C 1 70.0846 75.6213 41.6424 
474 C 1 69.8191 78.3052 42.3877 
475 C 1 69.7383 77.3085 43.3556 
476 C 1 69.7378 77.671 44.7356 
530 C 1 69.8794 75.9632 42.9957 
357 C 1 70.5633 80.9012 37.9688 
3853 H 2 73.5692 77.8192 37.6948 
3849 O 3 73.0097 77.3012 40.6669 
3851 H 2 72.4704 76.8467 40.0197 
3858 O 3 73.1645 77.377 43.3653 
3840 O 3 74.049 76.1019 37.872 
3860 H 2 73.526 78.2441 43.5487 
3854 H 2 72.6435 78.3164 36.605 
3850 H 2 73.0368 78.2082 40.3622 
3842 H 2 73.8791 75.9213 36.9475 
355 C 1 69.8753 79.2662 36.2606 
3852 O 3 73.0836 78.5929 37.4087 
3856 H 2 74.2715 79.6378 38.1166 
3848 H 2 74.5812 79.9148 42.3293 
3879 O 3 74.7704 79.6809 43.9507 
358 C 1 70.8323 81.1419 39.3305 
3857 H 2 74.3977 80.416 39.409 
3855 O 3 74.8309 80.2698 38.5681 
3871 H 2 74.7578 76.3079 43.5722 
3846 O 3 74.6135 79.7426 41.3883 
3869 H 2 74.99 76.3133 40.9081 
363 C 1 70.9189 81.1189 44.5333 
3841 H 2 75.0014 76.0532 37.955 
3880 H 2 75.4214 79.0857 43.579 
3847 H 2 75.5469 79.666 41.1903 
687 C 1 79.1976 75.0658 42.345 
682 C 1 79.484 75.0111 37.303 
3868 H 2 76.0123 75.3332 41.4431 
3870 O 3 75.6148 75.8893 43.4913 
3867 O 3 75.8644 75.9632 40.7378 
3827 H 2 76.67 75.8691 38.9774 
3825 O 3 76.6401 76.0724 38.0425 
3826 H 2 76.8172 77.0119 37.9955 
3845 H 2 76.3828 77.8432 40.8081 
3874 H 2 76.8092 77.4079 43.383 
3830 H 2 76.2708 79.3383 38.1565 
3829 H 2 77.3449 78.8492 37.2084 
3828 O 3 76.9858 78.7061 38.0841 
3843 O 3 77.0423 78.5365 40.8363 
3873 O 3 77.0755 78.3234 43.468 
3844 H 2 77.4223 78.5421 39.9578 
3875 H 2 77.2196 78.6159 42.568 
100 C 1 79.7858 80.0209 37.1742 
101 C 1 80.26 78.3084 38.881 
102 C 1 80.2142 77.9574 40.2676 
103 C 1 80.0521 78.9017 41.3341 
142 C 1 79.8637 79.6625 38.5639 
143 C 1 79.425 80.5531 39.6153 
144 C 1 79.5535 80.1865 40.9392 
146 C 1 80.113 78.599 42.7189 
147 C 1 80.0112 79.6539 43.6944 
681 C 1 80.0841 77.609 36.5153 
683 C 1 79.8334 75.9513 38.3059 
684 C 1 79.7036 75.6162 39.6481 
685 C 1 79.9849 76.6133 40.652 
689 C 1 79.4363 75.605 44.8268 
702 C 1 80.1179 77.286 37.9071 
703 C 1 79.7842 76.332 41.9978 
704 C 1 79.9977 77.2265 43.0909 
705 C 1 79.8195 76.9167 44.4701 
196 C 1 79.4316 80.8938 43.3329 
99 C 1 80.0097 79.0003 36.1025 
148 C 1 80.0239 79.2276 45.0456 
145 C 1 79.1924 81.1512 41.9554 
140 C 1 79.0484 81.1951 36.8009 
3881 H 2 75.1592 79.9783 44.7733 
3872 H 2 75.7735 75.4992 44.3509 
3817 H 2 76.6795 75.9388 36.1618 
356 C 1 71.2324 81.7338 36.9586 
244 C 1 74.5824 83.2566 36.73 
246 C 1 73.9253 83.202 39.1241 
300 C 1 73.2403 83.0113 36.3612 
301 C 1 72.3154 82.5823 37.39 
302 C 1 72.6063 82.739 38.742 
303 C 1 71.8858 82.0446 39.7679 
304 C 1 74.2398 83.1603 40.5049 
305 C 1 73.2788 82.9533 41.5115 
306 C 1 73.6326 83.0957 42.8909 
307 C 1 72.7386 82.6429 43.9383 
360 C 1 72.0644 82.2961 41.1367 
361 C 1 71.2694 81.7139 42.1496 
362 C 1 71.6049 81.8625 43.4955 
245 C 1 74.9373 83.2826 38.1191 
250 C 1 74.999 83.2538 43.2245 
189 C 1 76.9402 82.9317 36.0984 
308 C 1 75.4214 83.272 44.5718 
141 C 1 78.3725 81.9147 37.8469 
190 C 1 77.2293 82.6867 37.4929 
191 C 1 76.267 82.9924 38.4814 
192 C 1 78.6638 81.7061 39.2242 
193 C 1 77.8717 82.3234 40.2091 
194 C 1 78.2174 82.1494 41.5823 
195 C 1 77.3578 82.68 42.6398 
197 C 1 78.8326 81.5995 44.3925 
247 C 1 76.6103 82.8353 39.8421 
248 C 1 75.6411 83.1511 40.827 
249 C 1 76.0217 83.112 42.2298 
251 C 1 77.7257 82.5223 43.9703 
252 C 1 76.8509 83.091 44.9581 
533 C 1 70.7569 74.5459 46.3939 
585 C 1 71.7718 73.603 46.0263 
586 C 1 72.632 73.0804 47.0628 
588 C 1 71.2358 74.0481 48.8138 
589 C 1 71.0559 74.3894 50.1727 
590 C 1 71.7972 73.7002 51.1852 
629 C 1 74.2873 72.4589 45.3064 
630 C 1 73.933 72.5959 46.6896 
632 C 1 72.3264 73.2174 48.4529 
633 C 1 73.2142 72.8778 49.4705 
634 C 1 72.9381 73.0064 50.8482 
635 C 1 73.875 72.7218 51.8969 
636 C 1 71.4521 73.9192 52.5574 
637 C 1 72.2243 73.3328 53.5846 
671 C 1 73.4892 72.8601 53.2582 
667 C 1 74.5926 72.5231 49.1054 
587 C 1 70.5913 74.7643 47.8121 
592 C 1 70.5256 74.9262 52.9008 
631 C 1 74.9727 72.4723 47.6935 
669 C 1 75.2476 72.5955 51.5228 
664 C 1 76.635 72.7889 45.8972 
665 C 1 76.3605 72.5915 47.2879 
666 C 1 77.2513 72.8637 48.3175 
668 C 1 75.6105 72.5986 50.086 
670 C 1 76.2329 72.7496 52.5016 
690 C 1 77.7865 73.5069 45.4797 
691 C 1 78.5823 74.0879 46.5509 
692 C 1 78.3959 73.772 47.9013 
694 C 1 76.9679 72.858 49.718 
695 C 1 77.8488 73.3701 50.6953 
696 C 1 77.5076 73.1712 52.0643 
697 C 1 78.313 73.8267 53.0743 
698 C 1 75.9247 72.7127 53.8688 
710 C 1 78.85 74.28 50.3248 
693 C 1 79.073 74.493 48.9203 
712 C 1 79.2645 74.8456 52.6728 
3934 H 2 73.239 75.986 53.7871 
3865 H 2 74.0923 79.1831 46.701 
420 C 1 69.7365 79.0471 45.1084 
3866 H 2 73.157 79.0696 45.516 
3864 O 3 73.3358 78.6937 46.378 
3890 H 2 73.2123 76.9904 46.1756 
3901 H 2 72.8417 75.5364 48.2777 
422 C 1 70.4769 80.6219 46.9121 
424 C 1 70.1849 80.0635 49.2534 
477 C 1 69.786 76.672 45.7192 
478 C 1 69.8469 79.3877 46.5219 
479 C 1 69.6381 78.3758 47.5399 
480 C 1 69.7118 78.731 48.9459 
481 C 1 69.648 77.7328 49.9515 
482 C 1 70.3308 80.3919 50.6275 
483 C 1 69.901 79.5063 51.6754 
484 C 1 70.0884 79.7888 53.0691 
532 C 1 70.1772 75.3551 45.3658 
534 C 1 69.7013 77.0193 47.141 
535 C 1 69.9661 76.0554 48.1714 
536 C 1 69.8446 76.4165 49.5795 
537 C 1 70.2629 75.4966 50.5695 
538 C 1 69.5996 78.1205 51.3378 
539 C 1 69.6121 77.1446 52.3314 
540 C 1 69.5462 77.4888 53.7309 
591 C 1 70.1024 75.8835 51.9511 
3884 H 2 73.004 77.7144 49.1184 
3889 H 2 73.0162 75.98 45.0654 
3917 H 2 72.9593 76.9075 52.0255 
3888 O 3 73.2858 76.0561 45.9807 
3915 O 3 73.28 76.0338 51.8018 
3900 O 3 73.267 76.1139 48.9116 
3916 H 2 73.083 75.9372 50.8701 
3882 O 3 72.8777 78.6607 49.1884 
3912 O 3 72.8912 78.7333 52.1275 
3913 H 2 72.639 79.0167 51.2487 
3883 H 2 72.7115 78.9478 48.2905 
3914 H 2 73.7589 79.1143 52.2627 
423 C 1 70.7338 80.8663 48.235 
428 C 1 70.9049 80.9185 53.4581 
3899 H 2 74.2964 79.5661 49.2985 
3902 H 2 74.1687 75.796 48.9587 
3863 H 2 74.8067 75.7619 46.5984 
3904 H 2 74.9503 75.9042 52.3339 
3931 H 2 72.8127 79.248 54.0644 
3886 H 2 75.355 80.3807 47.6409 
3898 H 2 75.0559 80.6562 50.0243 
3897 O 3 75.0565 80.1422 49.2168 
3918 O 3 75.4718 80.2383 52.1245 
3920 H 2 75.4169 80.3697 53.0711 
206 C 1 79.9672 79.4561 53.9814 
3885 O 3 75.4322 80.2487 46.696 
3887 H 2 76.1388 79.6102 46.5998 
3862 H 2 75.938 75.0167 47.2741 
3861 O 3 75.7595 75.7532 46.6894 
3892 H 2 75.9849 75.3954 50.4907 
3891 O 3 75.9411 75.6711 49.5752 
3903 O 3 75.8996 75.8308 52.4324 
3893 H 2 76.4769 76.4633 49.5372 
3878 H 2 77.0656 77.3313 46.4166 
3908 H 2 76.6558 77.3223 52.1601 
3896 H 2 76.2544 78.753 49.3408 
3906 O 3 77.1016 78.1648 52.0723 
3895 H 2 77.5916 78.5005 48.6774 
3907 H 2 77.4371 78.1665 51.1758 
3894 O 3 77.0276 78.1906 49.3861 
3877 H 2 77.388 78.4165 45.4115 
3876 O 3 77.1296 78.2818 46.3233 
711 C 1 79.4164 75.1176 51.3301 
706 C 1 79.4536 75.1696 46.1688 
104 C 1 80.1076 77.8769 45.4588 
149 C 1 79.749 80.1937 46.0676 
150 C 1 80.0475 78.4887 47.8664 
151 C 1 80.0175 78.0444 49.2184 
152 C 1 79.8472 79.038 50.2283 
200 C 1 79.7615 79.7917 47.4389 
201 C 1 79.3273 80.6835 48.4044 
202 C 1 79.4574 80.3176 49.7982 
204 C 1 79.9583 78.7666 51.5707 
205 C 1 79.7741 79.7857 52.5727 