ITEM: TIMESTEP
2336184
ITEM: NUMBER OF ATOMS
5816
ITEM: BOX BOUNDS pp pp pp
0.0000000000000000e+00 1.5000000000000000e+02
0.0000000000000000e+00 1.5000000000000000e+02
0.0000000000000000e+00 2.5929559999999998e+02
ITEM: ATOMS id element type x y z 
127 C 1 72.0144 68.3332 7.5021 
128 C 1 73.3697 67.8648 7.77776 
138 C 1 72.059 68.4093 3.78843 
139 C 1 72.4249 68.1305 5.12496 
140 C 1 73.7712 67.6695 5.38079 
141 C 1 74.2516 67.588 6.69324 
148 C 1 72.5047 68.2053 1.37131 
149 C 1 72.8916 68.028 2.72912 
150 C 1 74.2638 67.81 2.99184 
151 C 1 74.6915 67.726 4.3242 
161 C 1 73.3846 67.9534 0.271568 
162 C 1 74.7395 67.8045 0.526922 
126 C 1 71.5304 68.4826 6.14052 
142 C 1 75.6728 67.5597 6.97241 
152 C 1 76.0795 67.8182 4.54011 
153 C 1 76.5179 67.8011 5.8776 
154 C 1 77.8059 68.2573 6.17313 
163 C 1 75.1858 67.7673 1.88877 
164 C 1 76.6027 67.9356 2.15808 
165 C 1 76.9755 68.0275 3.45267 
175 C 1 77.4868 68.2274 1.09472 
166 C 1 78.3429 68.473 3.71418 
155 C 1 78.2644 68.5026 7.51131 
167 C 1 78.6831 68.7181 5.07231 
98 C 1 67.8884 73.5944 6.17753 
99 C 1 67.9106 73.1585 7.52699 
109 C 1 67.7117 74.5471 3.46942 
110 C 1 67.8576 73.2065 3.78628 
111 C 1 68.0434 72.6775 5.104 
119 C 1 67.7786 74.0844 1.05048 
120 C 1 68.1295 72.7365 1.35427 
121 C 1 68.2288 72.3067 2.69036 
133 C 1 68.484 71.8693 0.271615 
100 C 1 68.3513 71.7766 7.76334 
112 C 1 68.7413 71.4666 5.35762 
147 C 1 71.2101 68.7852 1.11616 
122 C 1 68.8769 71.0592 2.89814 
113 C 1 68.8656 71.0188 6.65867 
137 C 1 70.8146 69.0836 3.5046 
114 C 1 69.7479 69.9507 7.00857 
123 C 1 69.1745 70.7399 4.24544 
124 C 1 70.0165 69.6487 4.56292 
125 C 1 70.3435 69.2748 5.90019 
134 C 1 69.2558 70.7073 0.508199 
135 C 1 69.5005 70.3268 1.85879 
136 C 1 70.4004 69.2755 2.17974 
176 C 1 78.7694 68.7868 1.28403 
156 C 1 79.3749 69.3244 7.77686 
168 C 1 79.8079 69.5371 5.30071 
169 C 1 80.1512 69.8577 6.67005 
177 C 1 79.2183 68.9054 2.61167 
178 C 1 80.2553 69.8329 2.88112 
179 C 1 80.5448 70.1623 4.23603 
185 C 1 79.503 69.3426 0.27156 
186 C 1 80.5584 70.2143 0.467113 
187 C 1 80.8676 70.5461 1.83609 
170 C 1 81.0133 70.9579 6.9587 
180 C 1 81.3308 71.3711 4.49644 
181 C 1 81.4916 71.7983 5.86633 
188 C 1 81.5862 71.7662 2.10543 
182 C 1 81.8663 73.1041 6.16874 
183 C 1 81.8597 73.5888 7.51629 
189 C 1 81.7506 72.1932 3.41041 
190 C 1 82.1044 73.5681 3.71412 
191 C 1 82.0241 74.0205 5.06418 
193 C 1 81.8314 72.67 1.06552 
194 C 1 82.1374 74.0789 1.34796 
195 C 1 82.1657 74.5554 2.68022 
21 C 1 82.23 74.9937 0.271597 
108 C 1 67.7689 75.019 2.13562 
97 C 1 67.8684 75.019 5.95999 
84 C 1 68.4083 77.7591 5.3302 
85 C 1 68.3365 77.2914 6.66277 
86 C 1 68.0035 75.973 6.99946 
94 C 1 68.2097 77.2904 2.95995 
95 C 1 68.0458 76.8225 4.27541 
96 C 1 67.7652 75.4674 4.60189 
105 C 1 68.4883 78.1432 0.271557 
106 C 1 68.051 76.8485 0.569881 
107 C 1 67.9273 76.4289 1.88966 
72 C 1 68.7106 78.1466 7.76444 
93 C 1 68.6375 78.6547 2.68568 
83 C 1 68.9221 79.0711 5.13108 
92 C 1 68.8869 79.0334 1.34484 
68 C 1 70.8476 81.0637 4.55421 
69 C 1 70.5482 80.7942 5.92042 
70 C 1 69.5467 79.7819 6.17049 
71 C 1 69.3538 79.3902 7.49589 
80 C 1 70.3613 80.8817 2.14097 
81 C 1 70.0393 80.569 3.48407 
82 C 1 69.1608 79.4786 3.76229 
91 C 1 69.7601 80.1188 1.07185 
14 C 1 80.7344 79.4069 6.18638 
15 C 1 80.3997 79.8053 7.51895 
16 C 1 79.5203 80.9339 7.73046 
26 C 1 80.5032 79.7624 3.76512 
27 C 1 80.1279 80.1117 5.07991 
35 C 1 80.9763 78.9455 1.04842 
36 C 1 80.1899 80.0743 1.34675 
37 C 1 79.8568 80.4234 2.655 
49 C 1 79.5125 80.6477 0.271616 
28 C 1 79.1349 81.0888 5.33938 
25 C 1 81.2138 78.5615 3.47286 
184 C 1 81.996 75.0013 7.73089 
13 C 1 81.4443 78.1699 5.89881 
5 C 1 81.9035 75.9151 6.67073 
6 C 1 81.658 77.2744 6.92168 
11 C 1 81.9298 76.3495 4.30352 
12 C 1 81.5928 77.705 4.5708 
22 C 1 82.098 76.3879 0.550361 
23 C 1 82.0387 76.9188 1.86554 
24 C 1 81.5294 78.2448 2.13013 
192 C 1 82.0118 75.4154 5.36476 
196 C 1 82.1086 75.9572 2.97209 
58 C 1 71.2865 81.3193 6.9937 
79 C 1 71.5605 81.5613 1.8713 
43 C 1 74.7261 82.57 7.47952 
44 C 1 73.3596 82.3353 7.75201 
54 C 1 74.8078 82.3881 3.75384 
55 C 1 74.2802 82.462 5.08839 
56 C 1 72.8985 82.2634 5.32096 
57 C 1 72.4467 82.1142 6.67288 
64 C 1 74.285 82.242 1.30562 
65 C 1 73.8473 82.2332 2.6706 
66 C 1 72.4755 81.9067 2.90294 
67 C 1 72.0661 81.7392 4.23607 
77 C 1 73.3979 82.0505 0.271539 
78 C 1 72.069 81.6088 0.550387 
38 C 1 78.718 81.2523 2.90087 
29 C 1 78.8057 81.5484 6.6618 
39 C 1 78.3195 81.5266 4.25757 
30 C 1 77.5144 82.1242 6.90648 
40 C 1 77.0863 82.228 4.55673 
41 C 1 76.6418 82.5365 5.85425 
42 C 1 75.1822 82.6892 6.14924 
50 C 1 78.3391 81.4121 0.550427 
51 C 1 77.8613 81.6528 1.87766 
52 C 1 76.6023 82.1737 2.11987 
53 C 1 76.177 82.3131 3.48433 
63 C 1 75.6782 82.2691 1.06876 
118 C 1 72.9339 67.9629 10.2402 
129 C 1 73.8197 67.779 9.1189 
334 C 1 72.1307 68.3959 15.0625 
344 C 1 72.5981 68.2032 12.6748 
345 C 1 73.0761 68.0477 14.0374 
346 C 1 74.4246 67.6976 14.2615 
347 C 1 74.9016 67.6077 15.6043 
357 C 1 73.4945 67.8739 11.5476 
358 C 1 74.8999 67.7443 11.8293 
117 C 1 71.6394 68.4655 9.92646 
116 C 1 71.2402 68.718 8.60074 
359 C 1 75.4026 67.7495 13.1729 
130 C 1 75.2598 67.7623 9.37102 
131 C 1 75.7691 67.8192 10.7397 
132 C 1 77.1358 67.9359 11.0466 
143 C 1 76.1788 67.6847 8.30212 
144 C 1 77.5333 68.0118 8.60174 
348 C 1 76.2962 67.7675 15.8774 
360 C 1 76.7578 67.8714 13.5163 
361 C 1 77.2262 67.9304 14.8684 
371 C 1 77.649 68.0549 12.4178 
145 C 1 77.9715 68.1634 9.91874 
362 C 1 78.5077 68.4554 15.0849 
372 C 1 78.9327 68.6423 12.652 
76 C 1 67.8518 74.607 11.003 
88 C 1 67.8853 74.1186 8.57005 
89 C 1 68.0331 73.6518 9.96049 
90 C 1 68.373 72.2764 10.18 
305 C 1 67.7792 74.561 14.7317 
306 C 1 67.9666 73.2039 15.0028 
315 C 1 67.8582 74.1249 12.3652 
316 C 1 68.1551 72.7807 12.5884 
317 C 1 68.3184 72.352 13.9311 
329 C 1 68.5296 71.854 11.5161 
101 C 1 68.636 71.3875 9.08678 
343 C 1 71.326 68.7723 12.3362 
318 C 1 69.0266 71.127 14.1952 
333 C 1 70.8883 69.085 14.7879 
104 C 1 70.8701 69.0169 10.9965 
319 C 1 69.3524 70.7997 15.555 
102 C 1 69.4253 70.248 9.34782 
103 C 1 69.813 69.9236 10.7108 
115 C 1 70.091 69.5243 8.32249 
320 C 1 70.2726 69.7771 15.8517 
330 C 1 69.2188 70.639 11.7994 
331 C 1 69.577 70.3666 13.1614 
332 C 1 70.5173 69.3461 13.4488 
373 C 1 79.3371 68.9207 13.9969 
146 C 1 79.1748 68.8927 10.1464 
157 C 1 79.746 69.6632 9.07406 
158 C 1 80.7795 70.6015 9.35816 
374 C 1 80.3122 69.9087 14.2158 
375 C 1 80.6311 70.2633 15.598 
381 C 1 79.6232 69.186 11.4684 
382 C 1 80.5256 70.2133 11.7775 
383 C 1 80.7814 70.6311 13.1167 
159 C 1 81.0611 70.9552 10.742 
171 C 1 81.3183 71.3464 8.28298 
376 C 1 81.3682 71.4766 15.8289 
384 C 1 81.4732 71.8962 13.375 
385 C 1 81.7518 72.2682 14.7478 
160 C 1 81.5903 72.2595 10.9696 
172 C 1 81.7033 72.6676 8.64353 
173 C 1 81.7792 73.1689 9.94184 
174 C 1 82.0003 74.5636 10.1612 
386 C 1 82.0826 73.6671 14.991 
389 C 1 81.8088 72.7115 12.2911 
390 C 1 82.0653 74.1174 12.5563 
391 C 1 82.2002 74.544 13.9028 
304 C 1 67.7608 75.0663 13.3913 
73 C 1 68.3942 77.7902 9.09602 
74 C 1 68.094 76.4497 9.39638 
75 C 1 67.9417 75.9859 10.7147 
87 C 1 67.9457 75.5014 8.33977 
290 C 1 68.1995 77.3954 14.2025 
291 C 1 67.9903 76.898 15.5103 
292 C 1 67.8143 75.52 15.7704 
302 C 1 68.0781 76.8913 11.7629 
303 C 1 67.9485 76.4054 13.0988 
301 C 1 68.5013 78.2499 11.5688 
289 C 1 68.7454 78.6871 13.9333 
62 C 1 68.7565 78.6371 10.2113 
288 C 1 68.9575 79.0911 12.6069 
278 C 1 69.2611 79.4914 14.9656 
48 C 1 70.1687 80.5233 10.9659 
60 C 1 69.9272 80.0659 8.60057 
61 C 1 69.5799 79.754 9.93107 
276 C 1 70.4445 80.8865 13.4034 
277 C 1 70.1488 80.5727 14.7854 
287 C 1 69.7602 80.2395 12.3388 
59 C 1 70.975 80.9652 8.34468 
264 C 1 70.891 81.1466 15.8533 
9 C 1 80.5652 79.3431 9.87631 
10 C 1 79.7066 80.3927 10.1318 
222 C 1 80.2857 79.6766 14.9579 
232 C 1 80.0297 80.1284 12.5332 
233 C 1 79.7359 80.4472 13.8623 
245 C 1 79.4116 80.7838 11.4475 
17 C 1 79.0609 81.1469 9.07594 
231 C 1 80.7734 78.9041 12.3178 
8 C 1 80.8418 78.9401 8.53476 
221 C 1 81.0406 78.5435 14.7304 
4 C 1 80.9774 78.5266 10.9621 
217 C 1 82.064 75.0541 11.5002 
220 C 1 81.273 78.1034 13.3843 
1 C 1 81.9344 75.5021 9.05839 
2 C 1 81.748 76.8677 9.35482 
3 C 1 81.6386 77.2922 10.6998 
7 C 1 81.4902 77.7289 8.25855 
207 C 1 81.9503 76.3737 15.4881 
208 C 1 81.4513 77.6922 15.7717 
218 C 1 81.9719 76.4182 11.7877 
219 C 1 81.8921 76.8563 13.1512 
392 C 1 82.1791 75.9664 14.1706 
47 C 1 71.2815 81.3421 10.7591 
275 C 1 71.6257 81.6347 13.1263 
46 C 1 71.6884 81.5675 9.40276 
263 C 1 72.0681 81.9328 15.5777 
34 C 1 73.8482 82.4244 10.1714 
45 C 1 72.9404 82.1834 9.1359 
250 C 1 74.6973 82.4419 15.0104 
260 C 1 74.2516 82.4858 12.5586 
261 C 1 73.808 82.4081 13.9178 
262 C 1 72.4174 82.0785 14.2107 
273 C 1 73.3398 82.4031 11.4947 
274 C 1 72.0882 81.7972 11.7964 
234 C 1 78.6593 81.307 14.1351 
235 C 1 78.2883 81.5652 15.5014 
246 C 1 78.2958 81.5849 11.7254 
20 C 1 76.1293 82.393 10.9575 
31 C 1 77.0589 82.2199 8.27237 
259 C 1 75.6472 82.4055 12.3023 
32 C 1 75.6812 82.4656 8.53004 
33 C 1 75.2225 82.5807 9.8815 
19 C 1 77.4172 81.9601 10.6787 
18 C 1 77.8759 81.8487 9.35721 
247 C 1 77.8083 81.6576 13.0715 
248 C 1 76.4902 82.1211 13.3612 
236 C 1 77.023 82.1823 15.7607 
249 C 1 76.0683 82.2498 14.694 
314 C 1 73.03 68.2422 21.4898 
324 C 1 73.5482 68.1067 19.0685 
325 C 1 73.956 68.0908 20.4523 
336 C 1 73.925 67.8143 16.6555 
337 C 1 74.4023 67.8349 18.0058 
540 C 1 72.6273 68.4982 23.891 
553 C 1 73.5063 68.2087 22.8403 
335 C 1 72.6194 68.317 16.4145 
323 C 1 72.2311 68.6202 18.7569 
554 C 1 74.879 68.0447 23.1056 
326 C 1 75.3049 68.0649 20.7423 
327 C 1 75.7887 68.154 22.038 
328 C 1 77.1698 68.3391 22.3491 
338 C 1 75.787 67.8936 18.3308 
339 C 1 76.2173 68.1459 19.6722 
340 C 1 77.573 68.4195 19.9213 
349 C 1 76.7317 67.9939 17.2599 
567 C 1 77.7194 68.3471 23.656 
350 C 1 78.027 68.4673 17.4958 
341 C 1 77.9948 68.5744 21.2821 
351 C 1 78.4683 68.6571 18.8447 
272 C 1 67.6805 74.6146 22.1922 
284 C 1 67.6996 74.1759 19.7685 
285 C 1 67.7639 73.6914 21.1185 
294 C 1 67.8833 73.6782 17.431 
295 C 1 67.8542 73.2358 18.7792 
307 C 1 68.1073 72.807 16.3516 
511 C 1 67.7432 74.1638 23.5645 
512 C 1 68.0515 72.8217 23.875 
286 C 1 68.2074 72.3486 21.4128 
296 C 1 68.3725 71.9407 19.0274 
525 C 1 68.3468 71.9463 22.8162 
297 C 1 68.7171 71.5475 20.3821 
308 C 1 68.7178 71.5421 16.5871 
313 C 1 71.7061 68.7502 21.1956 
322 C 1 71.7835 68.82 17.4646 
312 C 1 71.3463 69.0107 19.8468 
539 C 1 71.3189 69.0478 23.6015 
309 C 1 68.9728 71.1676 17.9594 
300 C 1 70.9197 69.2885 22.2522 
526 C 1 69.2001 70.8073 23.0246 
298 C 1 69.5145 70.4251 20.6266 
299 C 1 69.8456 70.1006 21.9715 
310 C 1 69.9657 70.1713 18.2429 
311 C 1 70.2114 69.7987 19.5651 
321 C 1 70.6424 69.5371 17.1773 
363 C 1 78.8581 68.7751 16.4016 
568 C 1 78.9843 68.875 23.9424 
342 C 1 79.2733 69.1268 21.5415 
352 C 1 79.6697 69.3273 19.058 
353 C 1 79.9846 69.7041 20.4444 
364 C 1 80.0369 69.5262 16.6976 
365 C 1 80.4802 69.8764 18.0001 
577 C 1 79.6509 69.4455 22.867 
578 C 1 80.6603 70.3866 23.133 
354 C 1 80.9244 70.7197 20.6959 
355 C 1 81.1741 71.0984 22.0425 
366 C 1 81.2631 71.0155 18.2687 
367 C 1 81.4478 71.4578 19.6042 
377 C 1 81.5457 71.9231 17.1738 
356 C 1 81.8867 72.3383 22.3165 
368 C 1 81.9701 72.7509 19.8333 
369 C 1 82.1654 73.2009 21.1671 
370 C 1 82.3605 74.5818 21.4163 
378 C 1 81.9916 73.2611 17.4311 
379 C 1 82.0995 73.6818 18.7522 
387 C 1 82.1282 74.1501 16.3278 
585 C 1 82.1704 72.7627 23.6395 
586 C 1 82.39 74.144 23.8622 
293 C 1 67.7578 75.1073 17.1468 
269 C 1 68.3495 77.8641 20.3555 
270 C 1 67.9691 76.4748 20.601 
271 C 1 67.8529 75.9861 21.9782 
280 C 1 68.2538 77.8385 16.5941 
281 C 1 68.1307 77.4339 17.9252 
282 C 1 67.893 76.0432 18.2262 
283 C 1 67.7924 75.5605 19.5411 
498 C 1 68.0374 76.9083 23.0142 
497 C 1 68.4464 78.2361 22.7785 
268 C 1 68.4891 78.2981 18.9883 
258 C 1 68.7118 78.623 21.4457 
279 C 1 68.9838 79.0754 16.3414 
484 C 1 68.8442 79.0359 23.9166 
244 C 1 69.9937 80.516 22.2431 
256 C 1 69.7298 80.126 19.8139 
257 C 1 69.4184 79.8245 21.187 
265 C 1 70.5274 80.7558 17.183 
266 C 1 69.4589 79.8561 17.4378 
267 C 1 69.1614 79.4876 18.7054 
483 C 1 69.6849 80.1645 23.635 
255 C 1 70.8641 80.9756 19.5685 
205 C 1 80.8506 79.3781 21.126 
206 C 1 79.8172 80.3419 21.4221 
210 C 1 80.6725 79.3346 17.3877 
211 C 1 80.4247 79.7031 18.7026 
212 C 1 79.4125 80.6585 19.0038 
223 C 1 80.0309 80.0366 16.3132 
428 C 1 80.1835 79.97 23.8172 
441 C 1 79.446 80.5767 22.7652 
213 C 1 79.1119 80.9845 20.3827 
224 C 1 79.0411 81.0366 16.5761 
427 C 1 81.0799 78.9358 23.5482 
225 C 1 78.6711 81.2377 17.9724 
204 C 1 81.0367 79.0038 19.7771 
380 C 1 82.2615 75.0591 19.0184 
413 C 1 82.3701 75.067 22.7682 
200 C 1 81.3803 78.6288 22.1793 
209 C 1 81.3824 78.1599 17.1046 
197 C 1 82.3403 75.5536 20.3515 
198 C 1 82.0889 76.918 20.5549 
199 C 1 82.0051 77.3469 21.8971 
201 C 1 82.1974 75.9987 17.9785 
202 C 1 81.8588 77.3839 18.2054 
203 C 1 81.7811 77.8276 19.5385 
388 C 1 82.1518 75.5327 16.5946 
414 C 1 82.1955 76.476 23.0123 
243 C 1 71.1972 81.2572 22.0146 
254 C 1 71.2667 81.336 18.2735 
242 C 1 71.6608 81.4494 20.659 
470 C 1 72.0745 81.5682 23.0909 
230 C 1 73.8363 82.1775 21.4811 
240 C 1 73.3646 82.2282 19.0891 
241 C 1 72.9223 81.9799 20.4278 
251 C 1 74.3168 82.4649 16.3751 
252 C 1 72.8857 82.3131 16.6925 
253 C 1 72.4732 82.0743 17.991 
456 C 1 74.2858 82.1812 23.8801 
469 C 1 73.369 81.9761 22.8136 
239 C 1 74.7374 82.3883 18.7529 
442 C 1 78.3364 81.4121 23.0126 
238 C 1 75.2604 82.4414 17.4499 
229 C 1 75.2203 82.303 21.1741 
214 C 1 77.8935 81.6395 20.6292 
215 C 1 77.5103 81.8465 21.9468 
216 C 1 76.1724 82.2617 22.2271 
226 C 1 77.5027 81.9669 18.2934 
227 C 1 77.0013 81.9236 19.5937 
228 C 1 75.6357 82.2304 19.8048 
237 C 1 76.6116 82.3414 17.2018 
455 C 1 75.7144 82.2534 23.5845 
520 C 1 73.5047 68.1336 30.342 
521 C 1 73.9085 67.9776 31.6706 
531 C 1 72.6423 68.4974 27.7025 
532 C 1 74.003 68.2101 27.9391 
533 C 1 74.4467 68.1295 29.2884 
541 C 1 73.0249 68.2649 25.2657 
542 C 1 74.4506 68.0214 25.5021 
519 C 1 72.1315 68.5401 30.0993 
530 C 1 72.1753 68.6372 26.3336 
543 C 1 74.8893 68.0608 26.8392 
522 C 1 75.2937 68.0807 31.9789 
555 C 1 75.3845 67.9586 24.441 
534 C 1 75.7862 68.1369 29.5497 
535 C 1 76.2179 68.2437 30.9077 
544 C 1 76.2779 68.0451 27.1036 
545 C 1 76.7384 68.1521 28.4691 
556 C 1 76.8026 67.9904 24.6882 
557 C 1 77.1852 68.1414 26.0362 
536 C 1 77.6078 68.4367 31.2261 
546 C 1 78.0874 68.4574 28.8084 
558 C 1 78.5496 68.588 26.3259 
547 C 1 78.4586 68.6918 30.1231 
480 C 1 67.7839 74.1723 31.1178 
490 C 1 67.8347 73.7512 28.6418 
491 C 1 68.0058 73.2897 29.9979 
501 C 1 67.594 74.5916 25.9976 
502 C 1 67.7987 73.2531 26.1967 
503 C 1 68.012 72.8372 27.5037 
513 C 1 68.179 72.3725 25.1762 
492 C 1 68.4155 71.916 30.3135 
504 C 1 68.6247 71.5715 27.8811 
493 C 1 68.6237 71.5373 31.6783 
518 C 1 71.7693 68.8622 28.7653 
508 C 1 71.2874 68.962 31.145 
514 C 1 68.9219 71.1854 25.5 
505 C 1 68.9064 71.1804 29.2105 
529 C 1 70.9408 69.2887 26.0702 
515 C 1 69.2083 70.7854 26.8227 
494 C 1 69.4703 70.3827 31.9578 
506 C 1 69.8127 70.1098 29.5499 
507 C 1 70.1407 69.7663 30.892 
516 C 1 70.2043 69.787 27.1443 
517 C 1 70.5765 69.5237 28.4311 
527 C 1 69.5098 70.4968 24.3949 
528 C 1 70.5728 69.5765 24.6957 
559 C 1 78.9304 68.8197 27.686 
569 C 1 79.3672 69.0397 25.2756 
548 C 1 79.6635 69.4112 30.3563 
549 C 1 79.9905 69.7197 31.7487 
550 C 1 80.9008 70.8158 32.0293 
560 C 1 79.991 69.7231 27.9295 
561 C 1 80.3419 70.0349 29.2673 
570 C 1 80.3452 70.0395 25.5257 
571 C 1 80.6268 70.425 26.8486 
579 C 1 81.0296 70.7199 24.4664 
562 C 1 81.1597 71.1808 29.565 
563 C 1 81.3978 71.5819 30.9317 
572 C 1 81.4215 71.5701 27.1333 
573 C 1 81.6839 71.9558 28.4677 
580 C 1 81.8488 71.8608 24.6955 
564 C 1 82.0481 72.7937 31.1784 
574 C 1 82.2702 73.2285 28.736 
575 C 1 82.3456 73.6567 30.0816 
581 C 1 81.9471 72.3889 26.0752 
582 C 1 82.3203 73.6957 26.357 
583 C 1 82.3921 74.1607 27.6561 
587 C 1 82.4203 74.5929 25.2238 
489 C 1 67.5734 75.1079 28.4106 
500 C 1 67.7064 75.0711 24.6873 
465 C 1 68.2185 77.8001 31.6613 
466 C 1 67.8224 76.4656 31.9076 
477 C 1 68.0753 77.4516 29.292 
478 C 1 67.6897 76.0684 29.5253 
479 C 1 67.695 75.5642 30.8379 
486 C 1 67.9512 77.4254 25.467 
487 C 1 67.7945 76.9479 26.8156 
488 C 1 67.5499 75.5327 27.071 
499 C 1 67.8456 76.4905 24.3959 
476 C 1 68.0794 77.884 27.9048 
464 C 1 68.4297 78.233 30.3652 
485 C 1 68.4989 78.717 25.2253 
475 C 1 68.7673 79.1104 27.6418 
463 C 1 69.1581 79.4356 30.0627 
452 C 1 69.7475 80.185 31.1504 
461 C 1 70.384 80.8664 28.4208 
462 C 1 69.3418 79.8755 28.7478 
472 C 1 70.4013 80.7839 24.7002 
473 C 1 69.9584 80.5665 26.021 
474 C 1 68.9958 79.5393 26.3065 
451 C 1 70.8756 81.0777 30.8703 
460 C 1 70.7049 81.218 27.0632 
450 C 1 71.2782 81.2492 29.4769 
407 C 1 80.6716 79.6358 30.0849 
408 C 1 79.6262 80.5446 30.2587 
418 C 1 80.6108 79.693 26.2863 
419 C 1 80.2516 79.9632 27.6316 
429 C 1 79.9272 80.2952 25.1819 
406 C 1 80.9265 79.2788 28.6684 
409 C 1 79.2328 80.8212 31.6105 
420 C 1 79.2141 80.8787 27.9211 
421 C 1 78.846 81.0827 29.246 
430 C 1 78.8282 81.1243 25.4869 
400 C 1 81.3343 78.9607 31.1308 
417 C 1 81.511 78.618 25.982 
576 C 1 82.6009 75.0424 30.3375 
405 C 1 81.77 78.1944 28.4038 
416 C 1 81.6691 78.2273 24.5848 
393 C 1 82.5947 75.5034 31.7145 
394 C 1 82.3307 76.9028 31.9282 
397 C 1 82.4708 75.9541 29.2481 
398 C 1 82.115 77.3338 29.5171 
399 C 1 82.0183 77.775 30.8348 
403 C 1 82.3165 76.4726 26.8047 
404 C 1 81.9787 77.7951 27.0375 
415 C 1 82.1258 76.8994 24.3191 
584 C 1 82.4306 75.5607 27.9063 
588 C 1 82.3343 76.0056 25.4499 
438 C 1 71.6403 81.4695 31.9676 
471 C 1 71.5848 81.4899 24.4099 
459 C 1 71.9725 81.7172 26.8356 
457 C 1 73.8248 82.1158 25.2496 
458 C 1 72.4392 81.8245 25.5017 
436 C 1 73.3854 82.0015 30.3006 
437 C 1 72.9518 81.9307 31.6623 
447 C 1 74.3423 82.0135 27.5893 
448 C 1 72.9875 81.8494 27.8917 
449 C 1 72.5324 81.8306 29.2272 
435 C 1 74.8345 82.0728 30.0536 
446 C 1 74.8247 82.0865 26.2805 
431 C 1 78.3912 81.3482 26.8567 
443 C 1 77.9707 81.5728 24.3784 
445 C 1 76.1753 81.9768 26.016 
434 C 1 75.2784 82.0023 28.7054 
432 C 1 77.1145 81.8689 27.1011 
444 C 1 76.6207 81.9809 24.6642 
433 C 1 76.6599 81.8585 28.4888 
423 C 1 77.0757 81.7118 30.8475 
410 C 1 77.9312 81.3893 31.9325 
422 C 1 77.5515 81.6487 29.5124 
424 C 1 75.7504 81.9857 31.1173 
510 C 1 72.9709 68.2119 32.8171 
727 C 1 72.4498 68.1373 38.9196 
728 C 1 73.8297 67.7818 39.2456 
736 C 1 72.4471 68.1934 35.1985 
737 C 1 72.957 68.0394 36.4827 
738 C 1 74.2903 67.7189 36.7733 
749 C 1 73.4166 68.0801 34.1491 
726 C 1 72.0325 68.3405 37.5709 
750 C 1 74.7798 67.9536 34.42 
739 C 1 74.7089 67.7408 38.1348 
714 C 1 71.594 68.4819 40.0272 
509 C 1 71.646 68.6786 32.5039 
751 C 1 75.2048 67.8916 35.7318 
523 C 1 75.6904 68.0805 33.3123 
524 C 1 77.0516 68.3275 33.6175 
740 C 1 76.0618 68.0422 38.3968 
741 C 1 76.538 68.136 39.7546 
752 C 1 76.5461 68.2236 35.9974 
753 C 1 76.9583 68.3359 37.3335 
763 C 1 77.4548 68.4777 34.9496 
742 C 1 77.8318 68.5842 39.9837 
537 C 1 78.0116 68.5129 32.5485 
468 C 1 67.7095 74.6445 33.5286 
686 C 1 67.9096 73.7001 40.0075 
697 C 1 67.8453 74.6783 37.3404 
698 C 1 67.9642 73.2945 37.6248 
699 C 1 68.0636 72.7981 38.9361 
707 C 1 67.8714 74.1522 34.8492 
708 C 1 68.1836 72.8558 35.2136 
482 C 1 68.3035 72.4171 32.7626 
709 C 1 68.3063 72.421 36.6096 
721 C 1 68.4928 71.922 34.1519 
481 C 1 67.8335 73.7297 32.4351 
700 C 1 68.5676 71.4847 39.2243 
735 C 1 71.1394 68.771 34.9383 
710 C 1 68.8693 71.0923 36.8169 
496 C 1 70.8077 69.0675 33.5722 
725 C 1 70.8247 69.0523 37.3124 
711 C 1 69.0868 70.6454 38.1614 
722 C 1 69.1387 70.7115 34.3747 
495 C 1 69.7359 69.9659 33.318 
712 C 1 70.083 69.6794 38.3796 
713 C 1 70.4849 69.3447 39.7274 
723 C 1 69.309 70.2848 35.7552 
724 C 1 70.333 69.2753 35.972 
754 C 1 78.2455 68.8875 37.5939 
755 C 1 78.664 69.0977 38.9531 
764 C 1 78.6784 69.1272 35.1999 
538 C 1 79.1958 69.2202 32.842 
765 C 1 79.0688 69.3429 36.547 
756 C 1 79.8341 69.8497 39.2832 
766 C 1 80.193 70.1527 36.8798 
767 C 1 80.4925 70.5035 38.2066 
773 C 1 79.5457 69.5248 34.1877 
774 C 1 80.5797 70.4704 34.4695 
775 C 1 80.835 70.8278 35.8399 
551 C 1 81.1442 71.179 33.3539 
768 C 1 81.2903 71.6505 38.4644 
769 C 1 81.4549 72.0338 39.8382 
776 C 1 81.6488 71.9416 36.0936 
552 C 1 81.8803 72.3551 33.6697 
566 C 1 82.5485 74.5827 32.8191 
770 C 1 82.0818 73.2142 40.1278 
777 C 1 81.8011 72.4168 37.3661 
778 C 1 82.3381 73.6913 37.6757 
779 C 1 82.3356 74.1461 39.0437 
781 C 1 82.0339 72.7935 34.9897 
782 C 1 82.4182 74.1146 35.2136 
783 C 1 82.4576 74.5904 36.5457 
565 C 1 82.254 73.1808 32.5519 
696 C 1 67.8622 75.1012 35.9697 
685 C 1 67.8356 75.0755 39.7367 
467 C 1 67.7617 76.0484 33.2894 
672 C 1 68.1921 77.8149 39.2224 
682 C 1 68.0495 77.3169 36.7878 
683 C 1 67.9474 76.9108 38.1145 
684 C 1 67.7736 75.5398 38.4339 
694 C 1 68.0175 76.8767 34.3676 
695 C 1 67.8886 76.4673 35.6543 
693 C 1 68.4597 78.1916 34.072 
454 C 1 68.6446 78.6303 32.7212 
681 C 1 68.6331 78.5976 36.502 
680 C 1 68.8651 79.0373 35.1417 
671 C 1 68.9506 78.9926 38.899 
670 C 1 69.1628 79.3952 37.5238 
440 C 1 70.1308 80.3415 33.6257 
657 C 1 70.4484 80.7673 39.7425 
658 C 1 69.4681 79.7775 39.9696 
668 C 1 70.4412 80.7389 35.9877 
669 C 1 70.1268 80.4054 37.3322 
679 C 1 69.7551 80.0856 34.9559 
656 C 1 70.8846 80.8835 38.3765 
453 C 1 69.4578 79.7821 32.4769 
439 C 1 71.1972 81.2359 33.3065 
402 C 1 79.9461 80.2253 32.6862 
614 C 1 80.6592 79.6355 37.6592 
615 C 1 80.2711 79.9298 38.9834 
624 C 1 80.3303 80.0274 35.1953 
625 C 1 79.9878 80.2842 36.4973 
637 C 1 79.5886 80.53 34.0784 
602 C 1 80.9602 79.2912 40.114 
616 C 1 79.1496 80.8147 39.2031 
401 C 1 81.047 79.3001 32.4846 
626 C 1 78.865 81.1107 36.821 
638 C 1 78.3636 81.2232 34.3948 
623 C 1 81.289 79.0041 34.9365 
609 C 1 82.5168 75.0996 34.1503 
396 C 1 81.5853 78.6369 33.615 
613 C 1 81.6163 78.6201 37.4399 
612 C 1 81.7883 78.2366 36.0846 
601 C 1 81.7862 78.1641 39.8413 
600 C 1 81.938 77.7343 38.5196 
395 C 1 82.1877 77.3688 33.3549 
599 C 1 82.292 76.4196 38.2208 
610 C 1 82.4428 76.4608 34.4427 
611 C 1 82.301 76.8716 35.786 
780 C 1 82.4543 75.5498 39.3012 
784 C 1 82.3696 75.9657 36.8933 
667 C 1 71.6644 81.446 35.7494 
666 C 1 72.0927 81.5868 34.3731 
655 C 1 72.096 81.6905 38.1036 
426 C 1 73.8844 82.0822 32.7039 
643 C 1 74.2988 82.1932 38.9232 
644 C 1 72.9257 81.974 39.1853 
652 C 1 74.3432 82.0407 35.1818 
653 C 1 73.8684 82.1199 36.5029 
654 C 1 72.5148 81.8456 36.7675 
665 C 1 73.4348 81.9541 34.0789 
642 C 1 74.8056 82.2032 37.5586 
627 C 1 78.3835 81.396 38.1402 
630 C 1 75.2602 82.1839 39.9595 
639 C 1 77.9795 81.4234 35.7603 
411 C 1 77.5725 81.5624 33.3049 
412 C 1 76.2406 81.9092 33.559 
628 C 1 77.1319 81.9641 38.4146 
629 C 1 76.622 81.9836 39.7537 
640 C 1 76.6587 81.8854 36.0471 
641 C 1 76.2493 82.0385 37.3693 
651 C 1 75.805 82.0656 34.925 
425 C 1 75.3007 81.982 32.468 
729 C 1 74.2899 67.8259 40.6242 
706 C 1 72.9358 68.1783 44.0872 
715 C 1 71.9922 68.3702 41.365 
716 C 1 73.3259 68.0016 41.6905 
717 C 1 73.8276 67.9476 43.0624 
932 C 1 72.4115 68.3381 46.4849 
933 C 1 72.7598 68.1135 47.8349 
934 C 1 74.157 67.8481 48.1789 
945 C 1 73.3385 68.0315 45.3847 
946 C 1 74.7108 67.7627 45.717 
705 C 1 71.5855 68.5998 43.7859 
718 C 1 75.1706 67.7928 43.2956 
947 C 1 75.1177 67.7431 47.0855 
719 C 1 75.6427 67.8297 44.6493 
720 C 1 77.0045 68.1663 44.8941 
730 C 1 75.6844 68.0138 40.9034 
731 C 1 76.1062 67.9239 42.2399 
732 C 1 77.4274 68.3861 42.4521 
948 C 1 76.491 68.0033 47.3215 
959 C 1 77.3794 68.3447 46.2553 
733 C 1 77.8589 68.5158 43.7972 
664 C 1 67.7617 74.6597 44.8459 
676 C 1 67.8885 74.2034 42.432 
677 C 1 67.8961 73.6772 43.7531 
678 C 1 68.3107 72.4205 44.0286 
687 C 1 68.0182 73.2573 41.3352 
903 C 1 67.7585 74.1307 46.1924 
904 C 1 68.0379 72.7589 46.4669 
905 C 1 68.179 72.3265 47.8291 
688 C 1 68.316 71.8766 41.5908 
917 C 1 68.4476 71.9361 45.3715 
689 C 1 68.6278 71.5105 42.9592 
931 C 1 71.0699 68.8238 46.1752 
704 C 1 71.1975 68.8555 42.4322 
692 C 1 70.7582 69.0749 44.832 
906 C 1 68.8667 71.0883 48.1185 
701 C 1 68.8112 71.0677 40.5252 
690 C 1 69.4045 70.3549 43.2076 
691 C 1 69.6906 69.9633 44.5607 
702 C 1 69.6994 69.988 40.7812 
703 C 1 70.0372 69.6708 42.1562 
918 C 1 69.0861 70.6874 45.6328 
919 C 1 69.3652 70.3779 47.0323 
920 C 1 70.3184 69.3575 47.2719 
921 C 1 70.6587 69.0517 48.5757 
757 C 1 80.1019 70.1768 40.6369 
743 C 1 78.2421 68.8193 41.3767 
960 C 1 78.655 68.9676 46.5213 
734 C 1 79.041 69.256 44.1167 
961 C 1 79.0694 69.1008 47.8661 
744 C 1 79.4139 69.5305 41.719 
745 C 1 79.8611 69.7229 43.0518 
746 C 1 80.8401 70.7435 43.2929 
962 C 1 80.2429 69.8597 48.1498 
969 C 1 79.423 69.5343 45.4333 
970 C 1 80.5273 70.3236 45.7214 
971 C 1 80.8538 70.6079 47.0919 
747 C 1 81.1135 71.1011 44.593 
758 C 1 81.0551 71.1873 40.8936 
759 C 1 81.3338 71.5361 42.2082 
972 C 1 81.473 71.828 47.3888 
748 C 1 81.7856 72.3003 44.9715 
760 C 1 82.0254 72.7979 42.5372 
761 C 1 82.1574 73.1787 43.9001 
762 C 1 82.3961 74.5716 44.1615 
771 C 1 82.3763 73.626 41.4259 
977 C 1 81.9502 72.7101 46.3481 
978 C 1 82.3562 74.0665 46.5538 
979 C 1 82.4489 74.5399 47.8534 
892 C 1 67.7132 75.0956 47.3107 
673 C 1 68.0316 77.3964 40.5459 
661 C 1 68.2884 77.8516 42.9145 
662 C 1 67.8776 76.5329 43.2757 
663 C 1 67.7253 76.065 44.6054 
674 C 1 67.8215 76.019 40.7969 
675 C 1 67.832 75.5942 42.1707 
878 C 1 68.1363 77.3517 48.0731 
890 C 1 67.948 76.9433 45.6592 
891 C 1 67.8925 76.4773 46.9935 
660 C 1 68.405 78.2604 41.5665 
889 C 1 68.4784 78.2462 45.3847 
877 C 1 68.7134 78.6179 47.8317 
650 C 1 68.6976 78.66 44.0276 
876 C 1 68.8879 79.0603 46.4657 
636 C 1 70.0307 80.5151 44.8554 
648 C 1 69.6709 80.2056 42.4013 
649 C 1 69.3204 79.902 43.7707 
659 C 1 69.1283 79.4523 41.3242 
864 C 1 70.4967 80.7948 47.2909 
875 C 1 69.6864 80.1867 46.2243 
647 C 1 70.8055 81.104 42.1561 
598 C 1 79.9074 80.1945 44.1515 
603 C 1 80.6535 79.7215 41.4429 
604 C 1 79.5394 80.5865 41.6622 
820 C 1 80.2104 79.9753 46.4955 
821 C 1 79.8336 80.2611 47.8656 
833 C 1 79.4999 80.5268 45.4428 
597 C 1 80.9917 79.3644 43.92 
605 C 1 79.1517 80.864 43.0124 
617 C 1 78.7813 81.0228 40.5549 
822 C 1 78.79 81.1833 48.13 
819 C 1 81.1882 78.9383 46.2758 
805 C 1 82.4721 75.0207 45.5177 
772 C 1 82.571 75.0679 41.71 
596 C 1 81.2543 79.0192 42.5455 
592 C 1 81.5454 78.5752 44.9653 
593 C 1 82.4766 75.9559 40.6437 
808 C 1 81.6609 78.1387 47.3587 
595 C 1 82.0253 77.8189 42.2545 
589 C 1 82.4423 75.5127 43.064 
590 C 1 82.3827 76.931 43.3452 
591 C 1 82.2752 77.3749 44.7028 
594 C 1 82.2052 77.323 40.9238 
806 C 1 82.4094 76.4372 45.7391 
807 C 1 82.2662 76.8477 47.1038 
980 C 1 82.4507 75.9015 48.1892 
646 C 1 71.2136 81.3431 40.8111 
635 C 1 71.1388 81.3489 44.6108 
634 C 1 71.5892 81.5367 43.2842 
863 C 1 71.6244 81.5957 47.0362 
645 C 1 72.4728 81.8816 40.5446 
862 C 1 71.9831 81.8116 45.6996 
850 C 1 72.4231 82.0771 48.1297 
622 C 1 73.8434 82.1944 44.0737 
861 C 1 73.3272 82.2532 45.4255 
632 C 1 73.375 82.1758 41.6341 
633 C 1 72.935 82.039 42.9986 
848 C 1 74.2727 82.3242 46.5172 
849 C 1 73.7881 82.3206 47.8394 
631 C 1 74.7816 82.2104 41.3111 
606 C 1 77.9022 81.4894 43.2697 
836 C 1 76.6563 82.0929 47.2857 
619 C 1 77.0622 81.8013 42.1634 
607 C 1 77.4869 81.5524 44.6125 
620 C 1 75.6706 82.0131 42.4432 
618 C 1 77.5413 81.683 40.8189 
834 C 1 78.3639 81.2868 45.7265 
835 C 1 77.9522 81.5786 47.0151 
608 C 1 76.1274 81.9689 44.8644 
847 C 1 75.6989 82.1611 46.2391 
621 C 1 75.2254 82.1556 43.7706 
902 C 1 72.8113 67.9806 55.3805 
912 C 1 73.3096 67.924 52.9664 
913 C 1 73.7667 67.8401 54.3231 
923 C 1 72.3361 68.1751 50.256 
924 C 1 73.7209 67.985 50.514 
925 C 1 74.2312 67.872 51.8764 
935 C 1 74.6846 67.9047 49.4933 
911 C 1 71.943 68.3164 52.6672 
922 C 1 71.912 68.3684 48.935 
910 C 1 71.4694 68.4742 51.3544 
901 C 1 71.5253 68.5424 55.1361 
914 C 1 75.1491 67.7666 54.5936 
915 C 1 75.6776 67.8568 55.9105 
916 C 1 77.0088 68.0323 56.2502 
926 C 1 75.6304 67.9215 52.1789 
927 C 1 76.0646 67.9025 53.5327 
928 C 1 77.4026 68.3022 53.8267 
929 C 1 77.8708 68.3989 55.1769 
936 C 1 76.0673 68.0468 49.7566 
937 C 1 76.5052 68.1082 51.1004 
938 C 1 77.781 68.569 51.3729 
939 C 1 78.267 68.7234 52.7338 
949 C 1 76.9594 68.1467 48.6752 
860 C 1 67.7052 74.5906 56.1605 
872 C 1 67.6183 74.0979 53.7293 
873 C 1 67.7966 73.6743 55.0882 
874 C 1 68.2918 72.367 55.3536 
882 C 1 67.8794 73.6576 51.2928 
883 C 1 67.8435 73.1815 52.6588 
894 C 1 67.9698 73.2455 48.8946 
895 C 1 68.1036 72.7717 50.243 
884 C 1 68.403 71.9304 52.9705 
896 C 1 68.6085 71.4772 50.5214 
893 C 1 67.7748 74.6138 48.6231 
885 C 1 68.6225 71.5198 54.286 
900 C 1 71.1476 68.7645 53.7466 
897 C 1 68.809 71.1322 51.889 
888 C 1 70.7752 69.1363 56.1788 
886 C 1 69.4181 70.3832 54.5376 
887 C 1 69.6634 69.9957 55.8918 
898 C 1 69.589 70.0016 52.0981 
899 C 1 70.0297 69.6399 53.4989 
907 C 1 69.1164 70.7248 49.4599 
908 C 1 70.022 69.6501 49.7229 
909 C 1 70.3446 69.3268 51.0972 
4988 H 2 71.6357 74.2295 56.4528 
950 C 1 78.2008 68.7615 48.963 
951 C 1 78.7008 68.8839 50.3026 
930 C 1 79.0826 69.0962 55.4404 
940 C 1 79.4922 69.4047 52.992 
941 C 1 79.8205 69.7088 54.352 
942 C 1 80.8174 70.6633 54.6288 
952 C 1 79.865 69.5432 50.5655 
953 C 1 80.1898 69.9177 51.9051 
963 C 1 80.613 70.2175 49.4835 
943 C 1 81.1076 71.0417 55.9509 
954 C 1 81.0317 71.0735 52.1835 
964 C 1 81.325 71.4676 49.7764 
955 C 1 81.3441 71.4239 53.5556 
965 C 1 81.5792 71.8891 51.1206 
944 C 1 81.7703 72.2578 56.243 
956 C 1 81.9581 72.6704 53.7999 
957 C 1 82.0582 73.1428 55.1332 
958 C 1 82.3378 74.5319 55.4037 
966 C 1 82.0875 73.1812 51.3824 
967 C 1 82.1773 73.5966 52.7004 
974 C 1 82.2023 73.581 49.0075 
975 C 1 82.3503 74.0719 50.3533 
968 C 1 82.4145 74.9287 52.9644 
973 C 1 81.6975 72.3315 48.7138 
881 C 1 67.6286 75.043 51.0724 
857 C 1 68.2236 77.8072 54.2674 