C_15.2.pdb > C_15.2.data (lammps datafile)

1942 atoms
472 bonds
236 angles
0 dihedrals
0 impropers

3 atom types
1 bond types
1 angle types

0.0 150 xlo xhi
0.0 150 ylo yhi
0.0 82.817 zlo zhi

Masses

1 12.011
2 1.008
3 15.994

Atoms

1 1 1 0.0 82.602 75.506 80.413
2 1 1 0.0 82.385 76.876 80.704
3 1 1 0.0 82.264 77.301 82.052
4 1 1 0.0 81.726 78.580 82.343
5 1 1 0.0 82.552 76.008 78.009
6 1 1 0.0 82.244 77.361 78.301
7 1 1 0.0 82.095 77.777 79.648
8 1 1 0.0 81.474 79.018 79.939
9 1 1 0.0 81.230 79.386 81.287
10 1 1 0.0 80.332 80.443 81.578
11 1 1 0.0 82.469 76.507 75.606
12 1 1 0.0 82.072 77.836 75.897
13 1 1 0.0 81.896 78.241 77.244
14 1 1 0.0 81.194 79.438 77.536
15 1 1 0.0 80.926 79.790 78.883
16 1 1 0.0 79.959 80.785 79.175
17 1 1 0.0 79.616 81.062 80.522
18 1 1 0.0 78.440 81.799 80.813
19 1 1 0.0 78.040 81.987 82.161
20 1 1 0.0 76.723 82.422 82.452
21 1 1 0.0 82.617 75.190 71.563
22 1 1 0.0 82.456 76.568 71.854
23 1 1 0.0 82.353 76.998 73.202
24 1 1 0.0 81.869 78.298 73.493
25 1 1 0.0 81.666 78.691 74.841
26 1 1 0.0 80.886 79.838 75.132
27 1 1 0.0 80.596 80.172 76.480
28 1 1 0.0 79.565 81.100 76.771
29 1 1 0.0 79.204 81.355 78.119
30 1 1 0.0 77.982 82.012 78.410
31 1 1 0.0 77.570 82.173 79.757
32 1 1 0.0 76.227 82.520 80.049
33 1 1 0.0 75.789 82.578 81.396
34 1 1 0.0 74.402 82.596 81.688
35 1 1 0.0 82.587 75.695 69.159
36 1 1 0.0 82.336 77.059 69.451
37 1 1 0.0 82.204 77.481 70.798
38 1 1 0.0 81.635 78.746 71.090
39 1 1 0.0 81.407 79.124 72.437
40 1 1 0.0 80.553 80.218 72.729
41 1 1 0.0 80.241 80.531 74.076
42 1 1 0.0 79.151 81.390 74.367
43 1 1 0.0 78.774 81.619 75.715
44 1 1 0.0 77.511 82.194 76.006
45 1 1 0.0 77.089 82.327 77.354
46 1 1 0.0 75.726 82.585 77.645
47 1 1 0.0 75.285 82.614 78.993
48 1 1 0.0 73.900 82.539 79.284
49 1 1 0.0 73.464 82.463 80.631
50 1 1 0.0 72.137 82.060 80.923
51 1 1 0.0 71.732 81.882 82.270
52 1 1 0.0 70.539 81.175 82.562
53 1 1 0.0 82.525 76.196 66.756
54 1 1 0.0 82.183 77.541 67.047
55 1 1 0.0 82.024 77.953 68.395
56 1 1 0.0 81.372 79.177 68.686
57 1 1 0.0 81.119 79.540 70.034
58 1 1 0.0 80.195 80.574 70.325
59 1 1 0.0 79.863 80.866 71.672
60 1 1 0.0 78.719 81.650 71.964
61 1 1 0.0 78.327 81.855 73.311
62 1 1 0.0 77.029 82.344 73.603
63 1 1 0.0 76.599 82.450 74.950
64 1 1 0.0 75.222 82.616 75.241
65 1 1 0.0 74.780 82.616 76.589
66 1 1 0.0 73.403 82.450 76.880
67 1 1 0.0 72.973 82.344 78.228
68 1 1 0.0 71.675 81.855 78.519
69 1 1 0.0 71.283 81.650 79.867
70 1 1 0.0 70.139 80.866 80.158
71 1 1 0.0 69.807 80.574 81.505
72 1 1 0.0 68.883 79.540 81.797
73 1 1 0.0 82.429 76.692 64.352
74 1 1 0.0 81.999 78.011 64.644
75 1 1 0.0 81.813 78.412 65.991
76 1 1 0.0 81.082 79.590 66.282
77 1 1 0.0 80.805 79.935 67.630
78 1 1 0.0 79.814 80.906 67.921
79 1 1 0.0 79.463 81.175 69.269
80 1 1 0.0 78.270 81.882 69.560
81 1 1 0.0 77.865 82.060 70.908
82 1 1 0.0 76.538 82.463 71.199
83 1 1 0.0 76.102 82.539 72.546
84 1 1 0.0 74.717 82.614 72.838
85 1 1 0.0 74.276 82.585 74.185
86 1 1 0.0 72.913 82.327 74.477
87 1 1 0.0 72.491 82.194 75.824
88 1 1 0.0 71.228 81.619 76.115
89 1 1 0.0 70.851 81.390 77.463
90 1 1 0.0 69.761 80.531 77.754
91 1 1 0.0 69.449 80.218 79.102
92 1 1 0.0 68.595 79.124 79.393
93 1 1 0.0 68.367 78.746 80.741
94 1 1 0.0 67.798 77.481 81.032
95 1 1 0.0 67.666 77.059 82.380
96 1 1 0.0 67.415 75.695 82.671
97 1 1 0.0 82.610 75.380 60.310
98 1 1 0.0 82.415 76.753 60.601
99 1 1 0.0 82.301 77.180 61.949
100 1 1 0.0 81.784 78.468 62.240
101 1 1 0.0 81.572 78.856 63.587
102 1 1 0.0 80.764 79.983 63.879
103 1 1 0.0 80.465 80.309 65.226
104 1 1 0.0 79.412 81.212 65.518
105 1 1 0.0 79.045 81.457 66.865
106 1 1 0.0 77.807 82.084 67.156
107 1 1 0.0 77.391 82.234 68.504
108 1 1 0.0 76.040 82.548 68.795
109 1 1 0.0 75.600 82.596 70.143
110 1 1 0.0 74.213 82.578 70.434
111 1 1 0.0 73.775 82.520 71.782
112 1 1 0.0 72.432 82.173 72.073
113 1 1 0.0 72.020 82.012 73.420
114 1 1 0.0 70.798 81.355 73.712
115 1 1 0.0 70.437 81.100 75.059
116 1 1 0.0 69.406 80.172 75.351
117 1 1 0.0 69.116 79.838 76.698
118 1 1 0.0 68.336 78.691 76.990
119 1 1 0.0 68.133 78.298 78.337
120 1 1 0.0 67.649 76.998 78.628
121 1 1 0.0 67.546 76.568 79.976
122 1 1 0.0 67.385 75.190 80.267
123 1 1 0.0 67.387 74.748 81.615
124 1 1 0.0 67.559 73.372 81.906
125 1 1 0.0 82.568 75.883 57.906
126 1 1 0.0 82.282 77.241 58.197
127 1 1 0.0 82.140 77.659 59.545
128 1 1 0.0 81.540 78.910 59.836
129 1 1 0.0 81.302 79.282 61.184
130 1 1 0.0 80.421 80.354 61.475
131 1 1 0.0 80.102 80.660 62.823
132 1 1 0.0 78.991 81.491 63.114
133 1 1 0.0 78.608 81.711 64.461
134 1 1 0.0 77.331 82.254 64.753
135 1 1 0.0 76.907 82.377 66.100
136 1 1 0.0 75.537 82.600 66.392
137 1 1 0.0 75.096 82.619 67.739
138 1 1 0.0 73.713 82.509 68.030
139 1 1 0.0 73.279 82.422 69.378
140 1 1 0.0 71.962 81.987 69.669
141 1 1 0.0 71.562 81.799 71.017
142 1 1 0.0 70.386 81.062 71.308
143 1 1 0.0 70.043 80.785 72.656
144 1 1 0.0 69.076 79.790 72.947
145 1 1 0.0 68.808 79.438 74.295
146 1 1 0.0 68.106 78.241 74.586
147 1 1 0.0 67.930 77.836 75.933
148 1 1 0.0 67.533 76.507 76.225
149 1 1 0.0 67.458 76.071 77.572
150 1 1 0.0 67.389 74.685 77.864
151 1 1 0.0 67.421 74.244 79.211
152 1 1 0.0 67.683 72.882 79.502
153 1 1 0.0 67.819 72.461 80.850
154 1 1 0.0 68.398 71.201 81.141
155 1 1 0.0 68.630 70.825 82.489
156 1 1 0.0 69.493 69.738 82.780
157 1 1 0.0 82.493 76.383 55.502
158 1 1 0.0 82.118 77.718 55.794
159 1 1 0.0 81.948 78.126 57.141
160 1 1 0.0 81.266 79.335 57.433
161 1 1 0.0 81.005 79.691 58.780
162 1 1 0.0 80.055 80.702 59.071
163 1 1 0.0 79.715 80.985 60.419
164 1 1 0.0 78.552 81.741 60.710
165 1 1 0.0 78.155 81.935 62.058
166 1 1 0.0 76.845 82.392 62.349
167 1 1 0.0 76.414 82.487 63.697
168 1 1 0.0 75.033 82.619 63.988
169 1 1 0.0 74.591 82.608 65.335
170 1 1 0.0 73.218 82.408 65.627
171 1 1 0.0 72.791 82.292 66.974
172 1 1 0.0 71.506 81.770 67.266
173 1 1 0.0 71.119 81.556 68.613
174 1 1 0.0 69.995 80.743 68.905
175 1 1 0.0 69.670 80.443 70.252
176 1 1 0.0 68.772 79.386 70.543
177 1 1 0.0 68.528 79.018 71.891
178 1 1 0.0 67.907 77.777 72.182
179 1 1 0.0 67.758 77.361 73.530
180 1 1 0.0 67.450 76.008 73.821
181 1 1 0.0 67.404 75.569 75.169
182 1 1 0.0 67.427 74.182 75.460
183 1 1 0.0 67.487 73.744 76.807
184 1 1 0.0 67.840 72.402 77.099
185 1 1 0.0 68.003 71.991 78.446
186 1 1 0.0 68.665 70.772 78.738
187 1 1 0.0 68.920 70.412 80.085
188 1 1 0.0 69.854 69.385 80.376
189 1 1 0.0 70.188 69.096 81.724
190 1 1 0.0 71.339 68.321 82.015
191 1 1 0.0 82.619 75.064 51.460
192 1 1 0.0 82.481 76.445 51.751
193 1 1 0.0 82.385 76.876 53.099
194 1 1 0.0 81.922 78.184 53.390
195 1 1 0.0 81.726 78.580 54.738
196 1 1 0.0 80.966 79.740 55.029
197 1 1 0.0 80.681 80.078 56.376
198 1 1 0.0 79.666 81.024 56.668
199 1 1 0.0 79.309 81.284 58.015
200 1 1 0.0 78.098 81.961 58.307
201 1 1 0.0 77.689 82.129 59.654
202 1 1 0.0 76.352 82.498 59.945
203 1 1 0.0 75.914 82.564 61.293
204 1 1 0.0 74.528 82.604 61.584
205 1 1 0.0 74.088 82.564 62.932
206 1 1 0.0 72.731 82.273 63.223
207 1 1 0.0 72.313 82.129 64.571
208 1 1 0.0 71.065 81.524 64.862
209 1 1 0.0 70.693 81.284 66.210
210 1 1 0.0 69.625 80.399 66.501
211 1 1 0.0 69.321 80.078 67.848
212 1 1 0.0 68.495 78.964 68.140
213 1 1 0.0 68.276 78.580 69.487
214 1 1 0.0 67.738 77.301 69.779
215 1 1 0.0 67.617 76.876 71.126
216 1 1 0.0 67.400 75.506 71.417
217 1 1 0.0 67.383 75.064 72.765
218 1 1 0.0 67.498 73.682 73.056
219 1 1 0.0 67.587 73.249 74.404
220 1 1 0.0 68.028 71.933 74.695
221 1 1 0.0 68.218 71.534 76.043
222 1 1 0.0 68.959 70.361 76.334
223 1 1 0.0 69.238 70.019 77.681
224 1 1 0.0 70.237 69.056 77.973
225 1 1 0.0 70.590 68.790 79.320
226 1 1 0.0 71.789 68.093 79.612
227 1 1 0.0 72.195 67.918 80.959
228 1 1 0.0 73.526 67.527 81.251
229 1 1 0.0 73.962 67.454 82.598
230 1 1 0.0 75.348 67.391 82.889
231 1 1 0.0 82.598 75.569 49.056
232 1 1 0.0 82.369 76.937 49.348
233 1 1 0.0 82.244 77.361 50.695
234 1 1 0.0 81.696 78.636 50.986
235 1 1 0.0 81.474 79.018 52.334
236 1 1 0.0 80.638 80.125 52.625
237 1 1 0.0 80.332 80.443 53.973
238 1 1 0.0 79.256 81.320 54.264
239 1 1 0.0 78.883 81.556 55.612
240 1 1 0.0 77.630 82.151 55.903
241 1 1 0.0 77.211 82.292 57.250
242 1 1 0.0 75.852 82.571 57.542
243 1 1 0.0 75.411 82.608 58.889
244 1 1 0.0 74.025 82.556 59.181
245 1 1 0.0 73.588 82.487 60.528
246 1 1 0.0 72.254 82.107 60.820
247 1 1 0.0 71.847 81.935 62.167
248 1 1 0.0 70.641 81.248 62.458
249 1 1 0.0 70.287 80.985 63.806
250 1 1 0.0 69.279 80.031 64.097
251 1 1 0.0 68.997 79.691 65.445
252 1 1 0.0 68.246 78.524 65.736
253 1 1 0.0 68.054 78.126 67.084
254 1 1 0.0 67.602 76.815 67.375
255 1 1 0.0 67.509 76.383 68.722
256 1 1 0.0 67.383 75.001 69.014
257 1 1 0.0 67.396 74.559 70.361
258 1 1 0.0 67.602 73.187 70.653
259 1 1 0.0 67.720 72.761 72.000
260 1 1 0.0 68.246 71.478 72.291
261 1 1 0.0 68.462 71.092 73.639
262 1 1 0.0 69.279 69.971 73.930
263 1 1 0.0 69.581 69.648 75.278
264 1 1 0.0 70.641 68.754 75.569
265 1 1 0.0 71.011 68.511 76.917
266 1 1 0.0 72.254 67.895 77.208
267 1 1 0.0 72.671 67.748 78.556
268 1 1 0.0 74.025 67.446 78.847
269 1 1 0.0 74.465 67.402 80.194
270 1 1 0.0 75.852 67.431 80.486
271 1 1 0.0 76.289 67.493 81.833
272 1 1 0.0 77.630 67.851 82.125
273 1 1 0.0 82.544 76.071 46.653
274 1 1 0.0 82.224 77.421 46.944
275 1 1 0.0 82.072 77.836 48.291
276 1 1 0.0 81.441 79.071 48.583
277 1 1 0.0 81.194 79.438 49.930
278 1 1 0.0 80.286 80.487 50.222
279 1 1 0.0 79.959 80.785 51.569
280 1 1 0.0 78.828 81.588 51.860
281 1 1 0.0 78.440 81.799 53.208
282 1 1 0.0 77.150 82.310 53.499
283 1 1 0.0 76.723 82.422 54.847
284 1 1 0.0 75.348 82.611 55.138
285 1 1 0.0 74.906 82.619 56.486
286 1 1 0.0 73.526 82.475 56.777
287 1 1 0.0 73.095 82.377 58.125
288 1 1 0.0 71.789 81.909 58.416
289 1 1 0.0 71.394 81.711 59.763
290 1 1 0.0 70.237 80.946 60.055
291 1 1 0.0 69.900 80.660 61.402
292 1 1 0.0 68.959 79.641 61.694
293 1 1 0.0 68.700 79.282 63.041
294 1 1 0.0 68.028 78.069 63.332
295 1 1 0.0 67.862 77.659 64.680
296 1 1 0.0 67.498 76.320 64.971
297 1 1 0.0 67.434 75.883 66.319
298 1 1 0.0 67.400 74.496 66.610
299 1 1 0.0 67.442 74.056 67.958
300 1 1 0.0 67.738 72.701 68.249
301 1 1 0.0 67.884 72.284 69.596
302 1 1 0.0 68.495 71.038 69.888
303 1 1 0.0 68.736 70.667 71.235
304 1 1 0.0 69.625 69.603 71.527
305 1 1 0.0 69.947 69.300 72.874
306 1 1 0.0 71.065 68.478 73.166
307 1 1 0.0 71.450 68.261 74.513
308 1 1 0.0 72.731 67.729 74.804
309 1 1 0.0 73.157 67.610 76.152
310 1 1 0.0 74.528 67.398 76.443
311 1 1 0.0 74.969 67.383 77.791
312 1 1 0.0 76.352 67.504 78.082
313 1 1 0.0 76.784 67.594 79.430
314 1 1 0.0 78.098 68.041 79.721
315 1 1 0.0 78.496 68.232 81.068
316 1 1 0.0 79.666 68.978 81.360
317 1 1 0.0 80.007 69.259 82.707
318 1 1 0.0 80.966 70.262 82.999
319 1 1 0.0 82.456 76.568 44.249
320 1 1 0.0 82.048 77.894 44.540
321 1 1 0.0 81.869 78.298 45.888
322 1 1 0.0 81.157 79.489 46.179
323 1 1 0.0 80.886 79.838 47.527
324 1 1 0.0 79.911 80.826 47.818
325 1 1 0.0 79.565 81.100 49.165
326 1 1 0.0 78.383 81.827 49.457
327 1 1 0.0 77.982 82.012 50.804
328 1 1 0.0 76.661 82.436 51.096
329 1 1 0.0 76.227 82.520 52.443
330 1 1 0.0 74.843 82.617 52.735
331 1 1 0.0 74.402 82.596 54.082
332 1 1 0.0 73.034 82.361 54.373
333 1 1 0.0 72.611 82.234 55.721
334 1 1 0.0 71.339 81.681 56.012
335 1 1 0.0 70.957 81.457 57.360
336 1 1 0.0 69.854 80.617 57.651
337 1 1 0.0 69.537 80.309 58.999
338 1 1 0.0 68.665 79.230 59.290
339 1 1 0.0 68.430 78.856 60.637
340 1 1 0.0 67.840 77.600 60.929
341 1 1 0.0 67.701 77.180 62.276
342 1 1 0.0 67.427 75.820 62.568
343 1 1 0.0 67.392 75.380 63.915
344 1 1 0.0 67.450 73.994 64.206
345 1 1 0.0 67.521 73.557 65.554
346 1 1 0.0 67.907 72.225 65.845
347 1 1 0.0 68.080 71.818 67.193
348 1 1 0.0 68.772 70.616 67.484
349 1 1 0.0 69.036 70.262 68.832
350 1 1 0.0 69.995 69.259 69.123
351 1 1 0.0 70.336 68.978 70.471
352 1 1 0.0 71.506 68.232 70.762
353 1 1 0.0 71.904 68.041 72.109
354 1 1 0.0 73.218 67.594 72.401
355 1 1 0.0 73.650 67.504 73.748
356 1 1 0.0 75.033 67.383 74.040
357 1 1 0.0 75.474 67.398 75.387
358 1 1 0.0 76.845 67.610 75.678
359 1 1 0.0 77.271 67.729 77.026
360 1 1 0.0 78.552 68.261 77.317
361 1 1 0.0 78.937 68.478 78.665
362 1 1 0.0 80.055 69.300 78.956
363 1 1 0.0 80.377 69.603 80.304
364 1 1 0.0 81.266 70.667 80.595
365 1 1 0.0 81.507 71.038 81.942
366 1 1 0.0 82.118 72.284 82.234
367 1 1 0.0 82.615 75.254 40.206
368 1 1 0.0 82.443 76.630 40.498
369 1 1 0.0 82.336 77.059 41.845
370 1 1 0.0 81.841 78.355 42.137
371 1 1 0.0 81.635 78.746 43.484
372 1 1 0.0 80.846 79.887 43.775
373 1 1 0.0 80.553 80.218 45.123
374 1 1 0.0 79.515 81.138 45.414
375 1 1 0.0 79.151 81.390 46.762
376 1 1 0.0 77.924 82.036 47.053
377 1 1 0.0 77.511 82.194 48.401
378 1 1 0.0 76.165 82.530 48.692
379 1 1 0.0 75.726 82.585 50.040
380 1 1 0.0 74.339 82.590 50.331
381 1 1 0.0 73.900 82.539 51.678
382 1 1 0.0 72.551 82.214 51.970
383 1 1 0.0 72.137 82.060 53.317
384 1 1 0.0 70.904 81.424 53.609
385 1 1 0.0 70.539 81.175 54.956
386 1 1 0.0 69.493 80.264 55.247
387 1 1 0.0 69.197 79.935 56.595
388 1 1 0.0 68.398 78.801 56.886
389 1 1 0.0 68.189 78.412 58.234
390 1 1 0.0 67.683 77.120 58.525
391 1 1 0.0 67.573 76.692 59.873
392 1 1 0.0 67.389 75.317 60.164
393 1 1 0.0 67.384 74.875 61.511
394 1 1 0.0 67.533 73.495 61.803
395 1 1 0.0 67.633 73.065 63.150
396 1 1 0.0 68.106 71.761 63.442
397 1 1 0.0 68.306 71.366 64.789
398 1 1 0.0 69.076 70.212 65.081
399 1 1 0.0 69.364 69.877 66.428
400 1 1 0.0 70.386 68.940 66.719
401 1 1 0.0 70.746 68.682 68.067
402 1 1 0.0 71.962 68.015 68.358
403 1 1 0.0 72.372 67.851 69.706
404 1 1 0.0 73.713 67.493 69.997
405 1 1 0.0 74.150 67.431 71.345
406 1 1 0.0 75.537 67.402 71.636
407 1 1 0.0 75.977 67.446 72.983
408 1 1 0.0 77.331 67.748 73.275
409 1 1 0.0 77.748 67.895 74.622
410 1 1 0.0 78.991 68.511 74.914
411 1 1 0.0 79.361 68.754 76.261
412 1 1 0.0 80.421 69.648 76.552
413 1 1 0.0 80.723 69.971 77.900
414 1 1 0.0 81.540 71.092 78.191
415 1 1 0.0 81.756 71.478 79.539
416 1 1 0.0 82.282 72.761 79.830
417 1 1 0.0 82.400 73.187 81.178
418 1 1 0.0 82.606 74.559 81.469
419 1 1 0.0 82.581 75.758 37.803
420 1 1 0.0 82.319 77.120 38.094
421 1 1 0.0 82.183 77.541 39.442
422 1 1 0.0 81.604 78.801 39.733
423 1 1 0.0 81.372 79.177 41.081
424 1 1 0.0 80.509 80.264 41.372
425 1 1 0.0 80.195 80.574 42.719
426 1 1 0.0 79.098 81.424 43.011
427 1 1 0.0 78.719 81.650 44.358
428 1 1 0.0 77.451 82.214 44.650
429 1 1 0.0 77.029 82.344 45.997
430 1 1 0.0 75.663 82.590 46.288
431 1 1 0.0 75.222 82.616 47.636
432 1 1 0.0 73.837 82.530 47.927
433 1 1 0.0 73.403 82.450 49.275
434 1 1 0.0 72.078 82.036 49.566
435 1 1 0.0 71.675 81.855 50.914
436 1 1 0.0 70.487 81.138 51.205
437 1 1 0.0 70.139 80.866 52.552
438 1 1 0.0 69.156 79.887 52.844
439 1 1 0.0 68.883 79.540 54.191
440 1 1 0.0 68.161 78.355 54.483
441 1 1 0.0 67.978 77.953 55.830
442 1 1 0.0 67.559 76.630 56.121
443 1 1 0.0 67.477 76.196 57.469
444 1 1 0.0 67.385 74.812 57.760
445 1 1 0.0 67.409 74.370 59.108
446 1 1 0.0 67.649 73.004 59.399
447 1 1 0.0 67.778 72.581 60.747
448 1 1 0.0 68.336 71.311 61.038
449 1 1 0.0 68.561 70.931 62.386
450 1 1 0.0 69.406 69.830 62.677
451 1 1 0.0 69.716 69.515 64.024
452 1 1 0.0 70.798 68.647 64.316
453 1 1 0.0 71.174 68.414 65.663
454 1 1 0.0 72.432 67.829 65.955
455 1 1 0.0 72.852 67.692 67.302
456 1 1 0.0 74.213 67.424 67.593
457 1 1 0.0 74.654 67.391 68.941
458 1 1 0.0 76.040 67.454 69.232
459 1 1 0.0 76.476 67.527 70.580
460 1 1 0.0 77.807 67.918 70.871
461 1 1 0.0 78.213 68.093 72.219
462 1 1 0.0 79.412 68.790 72.510
463 1 1 0.0 79.765 69.056 73.857
464 1 1 0.0 80.764 70.019 74.149
465 1 1 0.0 81.043 70.361 75.496
466 1 1 0.0 81.784 71.534 75.788
467 1 1 0.0 81.974 71.933 77.135
468 1 1 0.0 82.415 73.249 77.427
469 1 1 0.0 82.504 73.682 78.774
470 1 1 0.0 82.619 75.064 79.065
471 1 1 0.0 82.515 76.258 35.399
472 1 1 0.0 82.162 77.600 35.691
473 1 1 0.0 81.999 78.011 37.038
474 1 1 0.0 81.337 79.230 37.329
475 1 1 0.0 81.082 79.590 38.677
476 1 1 0.0 80.148 80.617 38.968
477 1 1 0.0 79.814 80.906 40.316
478 1 1 0.0 78.663 81.681 40.607
479 1 1 0.0 78.270 81.882 41.955
480 1 1 0.0 76.968 82.361 42.246
481 1 1 0.0 76.538 82.463 43.593
482 1 1 0.0 75.159 82.617 43.885
483 1 1 0.0 74.717 82.614 45.232
484 1 1 0.0 73.341 82.436 45.524
485 1 1 0.0 72.913 82.327 46.871
486 1 1 0.0 71.619 81.827 47.162
487 1 1 0.0 71.228 81.619 48.510
488 1 1 0.0 70.091 80.826 48.801
489 1 1 0.0 69.761 80.531 50.149
490 1 1 0.0 68.845 79.489 50.440
491 1 1 0.0 68.595 79.124 51.788
492 1 1 0.0 67.954 77.894 52.079
493 1 1 0.0 67.798 77.481 53.427
494 1 1 0.0 67.468 76.133 53.718
495 1 1 0.0 67.415 75.695 55.065
496 1 1 0.0 67.415 74.307 55.357
497 1 1 0.0 67.468 73.869 56.704
498 1 1 0.0 67.798 72.521 56.996
499 1 1 0.0 67.954 72.108 58.343
500 1 1 0.0 68.595 70.878 58.634
501 1 1 0.0 68.845 70.513 59.982
502 1 1 0.0 69.761 69.471 60.273
503 1 1 0.0 70.091 69.176 61.621
504 1 1 0.0 71.228 68.383 61.912
505 1 1 0.0 71.619 68.175 63.260
506 1 1 0.0 72.913 67.675 63.551
507 1 1 0.0 73.341 67.566 64.898
508 1 1 0.0 74.717 67.388 65.190
509 1 1 0.0 75.159 67.385 66.537
510 1 1 0.0 76.538 67.539 66.829
511 1 1 0.0 76.968 67.641 68.176
512 1 1 0.0 78.270 68.120 68.467
513 1 1 0.0 78.663 68.321 69.815
514 1 1 0.0 79.814 69.096 70.106
515 1 1 0.0 80.148 69.385 71.454
516 1 1 0.0 81.082 70.412 71.745
517 1 1 0.0 81.337 70.772 73.093
518 1 1 0.0 81.999 71.991 73.384
519 1 1 0.0 82.162 72.402 74.732
520 1 1 0.0 82.515 73.744 75.023
521 1 1 0.0 82.575 74.182 76.370
522 1 1 0.0 82.598 75.569 76.662
523 1 1 0.0 82.415 76.753 32.996
524 1 1 0.0 81.974 78.069 33.287
525 1 1 0.0 81.784 78.468 34.634
526 1 1 0.0 81.043 79.641 34.926
527 1 1 0.0 80.764 79.983 36.273
528 1 1 0.0 79.765 80.946 36.565
529 1 1 0.0 79.412 81.212 37.912
530 1 1 0.0 78.213 81.909 38.203
531 1 1 0.0 77.807 82.084 39.551
532 1 1 0.0 76.476 82.475 39.842
533 1 1 0.0 76.040 82.548 41.190
534 1 1 0.0 74.654 82.611 41.481
535 1 1 0.0 74.213 82.578 42.829
536 1 1 0.0 72.852 82.310 43.120
537 1 1 0.0 72.432 82.173 44.467
538 1 1 0.0 71.174 81.588 44.759
539 1 1 0.0 70.798 81.355 46.106
540 1 1 0.0 69.716 80.487 46.398
541 1 1 0.0 69.406 80.172 47.745
542 1 1 0.0 68.561 79.071 48.037
543 1 1 0.0 68.336 78.691 49.384
544 1 1 0.0 67.778 77.421 49.675
545 1 1 0.0 67.649 76.998 51.023
546 1 1 0.0 67.409 75.632 51.314
547 1 1 0.0 67.385 75.190 52.662
548 1 1 0.0 67.477 73.806 52.953
549 1 1 0.0 67.559 73.372 54.301
550 1 1 0.0 67.978 72.049 54.592
551 1 1 0.0 68.161 71.647 55.939
552 1 1 0.0 68.883 70.462 56.231
553 1 1 0.0 69.156 70.115 57.578
554 1 1 0.0 70.139 69.136 57.870
555 1 1 0.0 70.487 68.864 59.217
556 1 1 0.0 71.675 68.147 59.508
557 1 1 0.0 72.078 67.966 60.856
558 1 1 0.0 73.403 67.552 61.147
559 1 1 0.0 73.837 67.472 62.495
560 1 1 0.0 75.222 67.386 62.786
561 1 1 0.0 75.663 67.412 64.134
562 1 1 0.0 77.029 67.658 64.425
563 1 1 0.0 77.451 67.788 65.773
564 1 1 0.0 78.719 68.352 66.064
565 1 1 0.0 79.098 68.578 67.411
566 1 1 0.0 80.195 69.428 67.703
567 1 1 0.0 80.509 69.738 69.050
568 1 1 0.0 81.372 70.825 69.342
569 1 1 0.0 81.604 71.201 70.689
570 1 1 0.0 82.183 72.461 70.980
571 1 1 0.0 82.319 72.882 72.328
572 1 1 0.0 82.581 74.244 72.619
573 1 1 0.0 82.613 74.685 73.967
574 1 1 0.0 82.544 76.071 74.258
575 1 1 0.0 82.606 75.443 28.953
576 1 1 0.0 82.400 76.815 29.244
577 1 1 0.0 82.282 77.241 30.592
578 1 1 0.0 81.756 78.524 30.883
579 1 1 0.0 81.540 78.910 32.231
580 1 1 0.0 80.723 80.031 32.522
581 1 1 0.0 80.421 80.354 33.870
582 1 1 0.0 79.361 81.248 34.161
583 1 1 0.0 78.991 81.491 35.508
584 1 1 0.0 77.748 82.107 35.800
585 1 1 0.0 77.331 82.254 37.147
586 1 1 0.0 75.977 82.556 37.439
587 1 1 0.0 75.537 82.600 38.786
588 1 1 0.0 74.150 82.571 39.077
589 1 1 0.0 73.713 82.509 40.425
590 1 1 0.0 72.372 82.151 40.716
591 1 1 0.0 71.962 81.987 42.064
592 1 1 0.0 70.746 81.320 42.355
593 1 1 0.0 70.386 81.062 43.703
594 1 1 0.0 69.364 80.125 43.994
595 1 1 0.0 69.076 79.790 45.342
596 1 1 0.0 68.306 78.636 45.633
597 1 1 0.0 68.106 78.241 46.980
598 1 1 0.0 67.633 76.937 47.272
599 1 1 0.0 67.533 76.507 48.619
600 1 1 0.0 67.384 75.127 48.911
601 1 1 0.0 67.389 74.685 50.258
602 1 1 0.0 67.573 73.310 50.549
603 1 1 0.0 67.683 72.882 51.897
604 1 1 0.0 68.189 71.590 52.188
605 1 1 0.0 68.398 71.201 53.536
606 1 1 0.0 69.197 70.067 53.827
607 1 1 0.0 69.493 69.738 55.175
608 1 1 0.0 70.539 68.827 55.466
609 1 1 0.0 70.904 68.578 56.813
610 1 1 0.0 72.137 67.942 57.105
611 1 1 0.0 72.551 67.788 58.452
612 1 1 0.0 73.900 67.463 58.744
613 1 1 0.0 74.339 67.412 60.091
614 1 1 0.0 75.726 67.417 60.383
615 1 1 0.0 76.165 67.472 61.730
616 1 1 0.0 77.511 67.808 62.021
617 1 1 0.0 77.924 67.966 63.369
618 1 1 0.0 79.151 68.612 63.660
619 1 1 0.0 79.515 68.864 65.008
620 1 1 0.0 80.553 69.784 65.299
621 1 1 0.0 80.846 70.115 66.647
622 1 1 0.0 81.635 71.256 66.938
623 1 1 0.0 81.841 71.647 68.285
624 1 1 0.0 82.336 72.943 68.577
625 1 1 0.0 82.443 73.372 69.924
626 1 1 0.0 82.615 74.748 70.216
627 1 1 0.0 82.560 75.946 26.549
628 1 1 0.0 82.264 77.301 26.841
629 1 1 0.0 82.118 77.718 28.188
630 1 1 0.0 81.507 78.964 28.480
631 1 1 0.0 81.266 79.335 29.827
632 1 1 0.0 80.377 80.399 30.118
633 1 1 0.0 80.055 80.702 31.466
634 1 1 0.0 78.937 81.524 31.757
635 1 1 0.0 78.552 81.741 33.105
636 1 1 0.0 77.271 82.273 33.396
637 1 1 0.0 76.845 82.392 34.744
638 1 1 0.0 75.474 82.604 35.035
639 1 1 0.0 75.033 82.619 36.382
640 1 1 0.0 73.650 82.498 36.674
641 1 1 0.0 73.218 82.408 38.021
642 1 1 0.0 71.904 81.961 38.313
643 1 1 0.0 71.506 81.770 39.660
644 1 1 0.0 70.336 81.024 39.952
645 1 1 0.0 69.995 80.743 41.299
646 1 1 0.0 69.036 79.740 41.590
647 1 1 0.0 68.772 79.386 42.938
648 1 1 0.0 68.080 78.184 43.229
649 1 1 0.0 67.907 77.777 44.577
650 1 1 0.0 67.521 76.445 44.868
651 1 1 0.0 67.450 76.008 46.216
652 1 1 0.0 67.392 74.622 46.507
653 1 1 0.0 67.427 74.182 47.854
654 1 1 0.0 67.701 72.822 48.146
655 1 1 0.0 67.840 72.402 49.493
656 1 1 0.0 68.430 71.146 49.785
657 1 1 0.0 68.665 70.772 51.132
658 1 1 0.0 69.537 69.693 51.423
659 1 1 0.0 69.854 69.385 52.771
660 1 1 0.0 70.957 68.545 53.062
661 1 1 0.0 71.339 68.321 54.410
662 1 1 0.0 72.611 67.768 54.701
663 1 1 0.0 73.034 67.641 56.049
664 1 1 0.0 74.402 67.406 56.340
665 1 1 0.0 74.843 67.385 57.688
666 1 1 0.0 76.227 67.482 57.979
667 1 1 0.0 76.661 67.566 59.326
668 1 1 0.0 77.982 67.990 59.618
669 1 1 0.0 78.383 68.175 60.965
670 1 1 0.0 79.565 68.902 61.257
671 1 1 0.0 79.911 69.176 62.604
672 1 1 0.0 80.886 70.164 62.895
673 1 1 0.0 81.157 70.513 64.243
674 1 1 0.0 81.869 71.704 64.534
675 1 1 0.0 82.048 72.108 65.882
676 1 1 0.0 82.456 73.434 66.173
677 1 1 0.0 82.534 73.869 67.521
678 1 1 0.0 82.615 75.254 67.812
679 1 1 0.0 82.481 76.445 24.146
680 1 1 0.0 82.095 77.777 24.437
681 1 1 0.0 81.922 78.184 25.785
682 1 1 0.0 81.230 79.386 26.076
683 1 1 0.0 80.966 79.740 27.423
684 1 1 0.0 80.007 80.743 27.715
685 1 1 0.0 79.666 81.024 29.062
686 1 1 0.0 78.496 81.770 29.354
687 1 1 0.0 78.098 81.961 30.701
688 1 1 0.0 76.784 82.408 30.992
689 1 1 0.0 76.352 82.498 32.340
690 1 1 0.0 74.969 82.619 32.631
691 1 1 0.0 74.528 82.604 33.979
692 1 1 0.0 73.157 82.392 34.270
693 1 1 0.0 72.731 82.273 35.618
694 1 1 0.0 71.450 81.741 35.909
695 1 1 0.0 71.065 81.524 37.257
696 1 1 0.0 69.947 80.702 37.548
697 1 1 0.0 69.625 80.399 38.895
698 1 1 0.0 68.736 79.335 39.187
699 1 1 0.0 68.495 78.964 40.534
700 1 1 0.0 67.884 77.718 40.826
701 1 1 0.0 67.738 77.301 42.173
702 1 1 0.0 67.442 75.946 42.464
703 1 1 0.0 67.400 75.506 43.812
704 1 1 0.0 67.434 74.119 44.103
705 1 1 0.0 67.498 73.682 45.451
706 1 1 0.0 67.862 72.343 45.742
707 1 1 0.0 68.028 71.933 47.090
708 1 1 0.0 68.700 70.720 47.381
709 1 1 0.0 68.959 70.361 48.728
710 1 1 0.0 69.900 69.342 49.020
711 1 1 0.0 70.237 69.056 50.367
712 1 1 0.0 71.394 68.291 50.659
713 1 1 0.0 71.789 68.093 52.006
714 1 1 0.0 73.095 67.625 52.298
715 1 1 0.0 73.526 67.527 53.645
716 1 1 0.0 74.906 67.383 53.936
717 1 1 0.0 75.348 67.391 55.284
718 1 1 0.0 76.723 67.580 55.575
719 1 1 0.0 77.150 67.692 56.923
720 1 1 0.0 78.440 68.203 57.214
721 1 1 0.0 78.828 68.414 58.562
722 1 1 0.0 79.959 69.217 58.853
723 1 1 0.0 80.286 69.515 60.200
724 1 1 0.0 81.194 70.564 60.492
725 1 1 0.0 81.441 70.931 61.839
726 1 1 0.0 82.072 72.166 62.131
727 1 1 0.0 82.224 72.581 63.478
728 1 1 0.0 82.544 73.931 63.769
729 1 1 0.0 82.593 74.370 65.117
730 1 1 0.0 82.581 75.758 65.408
731 1 1 0.0 82.618 75.127 20.103
732 1 1 0.0 82.469 76.507 20.395
733 1 1 0.0 82.369 76.937 21.742
734 1 1 0.0 81.896 78.241 22.033
735 1 1 0.0 81.696 78.636 23.381
736 1 1 0.0 80.926 79.790 23.672
737 1 1 0.0 80.638 80.125 25.020
738 1 1 0.0 79.616 81.062 25.311
739 1 1 0.0 79.256 81.320 26.659
740 1 1 0.0 78.040 81.987 26.950
741 1 1 0.0 77.630 82.151 28.297
742 1 1 0.0 76.289 82.509 28.589
743 1 1 0.0 75.852 82.571 29.936
744 1 1 0.0 74.465 82.600 30.228
745 1 1 0.0 74.025 82.556 31.575
746 1 1 0.0 72.671 82.254 31.867
747 1 1 0.0 72.254 82.107 33.214
748 1 1 0.0 71.011 81.491 33.505
749 1 1 0.0 70.641 81.248 34.853
750 1 1 0.0 69.581 80.354 35.144
751 1 1 0.0 69.279 80.031 36.492
752 1 1 0.0 68.462 78.910 36.783
753 1 1 0.0 68.246 78.524 38.131
754 1 1 0.0 67.720 77.241 38.422
755 1 1 0.0 67.602 76.815 39.769
756 1 1 0.0 67.396 75.443 40.061
757 1 1 0.0 67.383 75.001 41.408
758 1 1 0.0 67.509 73.619 41.700
759 1 1 0.0 67.602 73.187 43.047
760 1 1 0.0 68.054 71.876 43.338
761 1 1 0.0 68.246 71.478 44.686
762 1 1 0.0 68.997 70.311 44.977
763 1 1 0.0 69.279 69.971 46.325
764 1 1 0.0 70.287 69.017 46.616
765 1 1 0.0 70.641 68.754 47.964
766 1 1 0.0 71.847 68.067 48.255
767 1 1 0.0 72.254 67.895 49.603
768 1 1 0.0 73.588 67.515 49.894
769 1 1 0.0 74.025 67.446 51.241
770 1 1 0.0 75.411 67.394 51.533
771 1 1 0.0 75.852 67.431 52.880
772 1 1 0.0 77.211 67.710 53.172
773 1 1 0.0 77.630 67.851 54.519
774 1 1 0.0 78.883 68.446 54.810
775 1 1 0.0 79.256 68.682 56.158
776 1 1 0.0 80.332 69.559 56.449
777 1 1 0.0 80.638 69.877 57.797
778 1 1 0.0 81.474 70.984 58.088
779 1 1 0.0 81.696 71.366 59.436
780 1 1 0.0 82.244 72.641 59.727
781 1 1 0.0 82.369 73.065 61.074
782 1 1 0.0 82.598 74.433 61.366
783 1 1 0.0 82.618 74.875 62.713
784 1 1 0.0 82.515 76.258 63.005
785 1 1 0.0 82.593 75.632 17.700
786 1 1 0.0 82.353 76.998 17.991
787 1 1 0.0 82.224 77.421 19.338
788 1 1 0.0 81.666 78.691 19.630
789 1 1 0.0 81.441 79.071 20.977
790 1 1 0.0 80.596 80.172 21.269
791 1 1 0.0 80.286 80.487 22.616
792 1 1 0.0 79.204 81.355 22.907
793 1 1 0.0 78.828 81.588 24.255
794 1 1 0.0 77.570 82.173 24.546
795 1 1 0.0 77.150 82.310 25.894
796 1 1 0.0 75.789 82.578 26.185
797 1 1 0.0 75.348 82.611 27.533
798 1 1 0.0 73.962 82.548 27.824
799 1 1 0.0 73.526 82.475 29.172
800 1 1 0.0 72.195 82.084 29.463
801 1 1 0.0 71.789 81.909 30.810
802 1 1 0.0 70.590 81.212 31.102
803 1 1 0.0 70.237 80.946 32.449
804 1 1 0.0 69.238 79.983 32.741
805 1 1 0.0 68.959 79.641 34.088
806 1 1 0.0 68.218 78.468 34.379
807 1 1 0.0 68.028 78.069 35.727
808 1 1 0.0 67.587 76.753 36.018
809 1 1 0.0 67.498 76.320 37.366
810 1 1 0.0 67.383 74.938 37.657
811 1 1 0.0 67.400 74.496 39.005
812 1 1 0.0 67.617 73.126 39.296
813 1 1 0.0 67.738 72.701 40.643
814 1 1 0.0 68.276 71.422 40.935
815 1 1 0.0 68.495 71.038 42.282
816 1 1 0.0 69.321 69.924 42.574
817 1 1 0.0 69.625 69.603 43.921
818 1 1 0.0 70.693 68.718 44.213
819 1 1 0.0 71.065 68.478 45.560
820 1 1 0.0 72.313 67.873 45.851
821 1 1 0.0 72.731 67.729 47.199
822 1 1 0.0 74.088 67.438 47.490
823 1 1 0.0 74.528 67.398 48.838
824 1 1 0.0 75.914 67.438 49.129
825 1 1 0.0 76.352 67.504 50.477
826 1 1 0.0 77.689 67.873 50.768
827 1 1 0.0 78.098 68.041 52.115
828 1 1 0.0 79.309 68.718 52.407
829 1 1 0.0 79.666 68.978 53.754
830 1 1 0.0 80.681 69.924 54.046
831 1 1 0.0 80.966 70.262 55.393
832 1 1 0.0 81.726 71.422 55.684
833 1 1 0.0 81.922 71.818 57.032
834 1 1 0.0 82.385 73.126 57.323
835 1 1 0.0 82.481 73.557 58.671
836 1 1 0.0 82.619 74.938 58.962
837 1 1 0.0 82.534 76.133 15.296
838 1 1 0.0 82.204 77.481 15.587
839 1 1 0.0 82.048 77.894 16.935
840 1 1 0.0 81.407 79.124 17.226
841 1 1 0.0 81.157 79.489 18.574
842 1 1 0.0 80.241 80.531 18.865
843 1 1 0.0 79.911 80.826 20.212
844 1 1 0.0 78.774 81.619 20.504
845 1 1 0.0 78.383 81.827 21.851
846 1 1 0.0 77.089 82.327 22.143
847 1 1 0.0 76.661 82.436 23.490
848 1 1 0.0 75.285 82.614 23.782
849 1 1 0.0 74.843 82.617 25.129
850 1 1 0.0 73.464 82.463 25.420
851 1 1 0.0 73.034 82.361 26.768
852 1 1 0.0 71.732 81.882 27.059
853 1 1 0.0 71.339 81.681 28.407
854 1 1 0.0 70.188 80.906 28.698
855 1 1 0.0 69.854 80.617 30.046
856 1 1 0.0 68.920 79.590 30.337
857 1 1 0.0 68.665 79.230 31.684
858 1 1 0.0 68.003 78.011 31.976
859 1 1 0.0 67.840 77.600 33.323
860 1 1 0.0 67.487 76.258 33.615
861 1 1 0.0 67.427 75.820 34.962
862 1 1 0.0 67.404 74.433 35.253
863 1 1 0.0 67.450 73.994 36.601
864 1 1 0.0 67.758 72.641 36.892
865 1 1 0.0 67.907 72.225 38.240
866 1 1 0.0 68.528 70.984 38.531
867 1 1 0.0 68.772 70.616 39.879
868 1 1 0.0 69.670 69.559 40.170
869 1 1 0.0 69.995 69.259 41.518
870 1 1 0.0 71.119 68.446 41.809
871 1 1 0.0 71.506 68.232 43.156
872 1 1 0.0 72.791 67.710 43.448
873 1 1 0.0 73.218 67.594 44.795
874 1 1 0.0 74.591 67.394 45.087
875 1 1 0.0 75.033 67.383 46.434
876 1 1 0.0 76.414 67.515 46.725
877 1 1 0.0 76.845 67.610 48.073
878 1 1 0.0 78.155 68.067 48.364
879 1 1 0.0 78.552 68.261 49.712
880 1 1 0.0 79.715 69.017 50.003
881 1 1 0.0 80.055 69.300 51.351
882 1 1 0.0 81.005 70.311 51.642
883 1 1 0.0 81.266 70.667 52.989
884 1 1 0.0 81.948 71.876 53.281
885 1 1 0.0 82.118 72.284 54.628
886 1 1 0.0 82.493 73.619 54.920
887 1 1 0.0 82.560 74.056 56.267
888 1 1 0.0 82.606 75.443 56.559
889 1 1 0.0 82.443 76.630 12.892
890 1 1 0.0 82.024 77.953 13.184
891 1 1 0.0 81.841 78.355 14.531
892 1 1 0.0 81.119 79.540 14.822
893 1 1 0.0 80.846 79.887 16.170
894 1 1 0.0 79.863 80.866 16.461
895 1 1 0.0 79.515 81.138 17.809
896 1 1 0.0 78.327 81.855 18.100
897 1 1 0.0 77.924 82.036 19.448
898 1 1 0.0 76.599 82.450 19.739
899 1 1 0.0 76.165 82.530 21.087
900 1 1 0.0 74.780 82.616 21.378
901 1 1 0.0 74.339 82.590 22.725
902 1 1 0.0 72.973 82.344 23.017
903 1 1 0.0 72.551 82.214 24.364
904 1 1 0.0 71.283 81.650 24.656
905 1 1 0.0 70.904 81.424 26.003