C_25_7_14.pdb > C_25_7_14.data (lammps datafile)

5816 atoms
872 bonds
436 angles
0 dihedrals
0 impropers

3 atom types
1 bond types
1 angle types

0.0 150 xlo xhi
0.0 150 ylo yhi
0.0 259.2956 zlo zhi

Masses

1 12.011
2 1.008
3 15.9994

Atoms

1 1 1 0.0 82.233 75.464 9.326
2 1 1 0.0 82.011 76.839 9.594
3 1 1 0.0 81.879 77.284 10.934
4 1 1 0.0 81.315 78.557 11.202
5 1 1 0.0 82.189 75.927 6.914
6 1 1 0.0 81.879 77.284 7.182
7 1 1 0.0 81.718 77.720 8.522
8 1 1 0.0 81.075 78.954 8.790
9 1 1 0.0 80.809 79.335 10.130
10 1 1 0.0 79.873 80.366 10.398
11 1 1 0.0 82.114 76.386 4.503
12 1 1 0.0 81.718 77.720 4.771
13 1 1 0.0 81.530 78.145 6.111
14 1 1 0.0 80.809 79.335 6.378
15 1 1 0.0 80.519 79.698 7.718
16 1 1 0.0 79.519 80.667 7.986
17 1 1 0.0 79.147 80.945 9.326
18 1 1 0.0 77.934 81.628 9.594
19 1 1 0.0 77.503 81.802 10.934
20 1 1 0.0 76.157 82.155 11.202
21 1 1 0.0 82.248 75.000 0.483
22 1 1 0.0 82.114 76.386 0.751
23 1 1 0.0 82.011 76.839 2.091
24 1 1 0.0 81.530 78.145 2.359
25 1 1 0.0 81.315 78.557 3.699
26 1 1 0.0 80.519 79.698 3.967
27 1 1 0.0 80.207 80.042 5.307
28 1 1 0.0 79.147 80.945 5.575
29 1 1 0.0 78.757 81.198 6.914
30 1 1 0.0 77.503 81.802 7.182
31 1 1 0.0 77.062 81.949 8.522
32 1 1 0.0 75.696 82.215 8.790
33 1 1 0.0 75.232 82.244 10.130
34 1 1 0.0 73.843 82.155 10.398
35 1 1 0.0 81.075 78.954 1.287
36 1 1 0.0 80.207 80.042 1.555
37 1 1 0.0 79.873 80.366 2.895
38 1 1 0.0 78.757 81.198 3.163
39 1 1 0.0 78.353 81.426 4.503
40 1 1 0.0 77.062 81.949 4.771
41 1 1 0.0 76.613 82.066 6.111
42 1 1 0.0 75.232 82.244 6.378
43 1 1 0.0 74.768 82.244 7.718
44 1 1 0.0 73.387 82.066 7.986
45 1 1 0.0 72.938 81.949 9.326
46 1 1 0.0 71.647 81.426 9.594
47 1 1 0.0 71.243 81.198 10.934
48 1 1 0.0 70.127 80.366 11.202
49 1 1 0.0 79.519 80.667 0.483
50 1 1 0.0 78.353 81.426 0.751
51 1 1 0.0 77.934 81.628 2.091
52 1 1 0.0 76.613 82.066 2.359
53 1 1 0.0 76.157 82.155 3.699
54 1 1 0.0 74.768 82.244 3.967
55 1 1 0.0 74.304 82.215 5.307
56 1 1 0.0 72.938 81.949 5.575
57 1 1 0.0 72.497 81.802 6.914
58 1 1 0.0 71.243 81.198 7.182
59 1 1 0.0 70.853 80.945 8.522
60 1 1 0.0 69.793 80.042 8.790
61 1 1 0.0 69.481 79.698 10.130
62 1 1 0.0 68.685 78.557 10.398
63 1 1 0.0 75.696 82.215 1.287
64 1 1 0.0 74.304 82.215 1.555
65 1 1 0.0 73.843 82.155 2.895
66 1 1 0.0 72.497 81.802 3.163
67 1 1 0.0 72.066 81.628 4.503
68 1 1 0.0 70.853 80.945 4.771
69 1 1 0.0 70.481 80.667 6.111
70 1 1 0.0 69.481 79.698 6.378
71 1 1 0.0 69.191 79.335 7.718
72 1 1 0.0 68.470 78.145 7.986
73 1 1 0.0 68.282 77.720 9.326
74 1 1 0.0 67.886 76.386 9.594
75 1 1 0.0 67.811 75.927 10.934
76 1 1 0.0 67.767 74.536 11.202
77 1 1 0.0 73.387 82.066 0.483
78 1 1 0.0 72.066 81.628 0.751
79 1 1 0.0 71.647 81.426 2.091
80 1 1 0.0 70.481 80.667 2.359
81 1 1 0.0 70.127 80.366 3.699
82 1 1 0.0 69.191 79.335 3.967
83 1 1 0.0 68.925 78.954 5.307
84 1 1 0.0 68.282 77.720 5.575
85 1 1 0.0 68.121 77.284 6.914
86 1 1 0.0 67.811 75.927 7.182
87 1 1 0.0 67.767 75.464 8.522
88 1 1 0.0 67.811 74.073 8.790
89 1 1 0.0 67.886 73.614 10.130
90 1 1 0.0 68.282 72.280 10.398
91 1 1 0.0 69.793 80.042 1.287
92 1 1 0.0 68.925 78.954 1.555
93 1 1 0.0 68.685 78.557 2.895
94 1 1 0.0 68.121 77.284 3.163
95 1 1 0.0 67.989 76.839 4.503
96 1 1 0.0 67.767 75.464 4.771
97 1 1 0.0 67.752 75.000 6.111
98 1 1 0.0 67.886 73.614 6.378
99 1 1 0.0 67.989 73.161 7.718
100 1 1 0.0 68.470 71.855 7.986
101 1 1 0.0 68.685 71.443 9.326
102 1 1 0.0 69.481 70.302 9.594
103 1 1 0.0 69.793 69.958 10.934
104 1 1 0.0 70.853 69.055 11.202
105 1 1 0.0 68.470 78.145 0.483
106 1 1 0.0 67.989 76.839 0.751
107 1 1 0.0 67.886 76.386 2.091
108 1 1 0.0 67.752 75.000 2.359
109 1 1 0.0 67.767 74.536 3.699
110 1 1 0.0 67.989 73.161 3.967
111 1 1 0.0 68.121 72.716 5.307
112 1 1 0.0 68.685 71.443 5.575
113 1 1 0.0 68.925 71.046 6.914
114 1 1 0.0 69.793 69.958 7.182
115 1 1 0.0 70.127 69.634 8.522
116 1 1 0.0 71.243 68.802 8.790
117 1 1 0.0 71.647 68.574 10.130
118 1 1 0.0 72.938 68.051 10.398
119 1 1 0.0 67.811 74.073 1.287
120 1 1 0.0 68.121 72.716 1.555
121 1 1 0.0 68.282 72.280 2.895
122 1 1 0.0 68.925 71.046 3.163
123 1 1 0.0 69.191 70.665 4.503
124 1 1 0.0 70.127 69.634 4.771
125 1 1 0.0 70.481 69.333 6.111
126 1 1 0.0 71.647 68.574 6.378
127 1 1 0.0 72.066 68.372 7.718
128 1 1 0.0 73.387 67.934 7.986
129 1 1 0.0 73.843 67.845 9.326
130 1 1 0.0 75.232 67.756 9.594
131 1 1 0.0 75.696 67.785 10.934
132 1 1 0.0 77.062 68.051 11.202
133 1 1 0.0 68.470 71.855 0.483
134 1 1 0.0 69.191 70.665 0.751
135 1 1 0.0 69.481 70.302 2.091
136 1 1 0.0 70.481 69.333 2.359
137 1 1 0.0 70.853 69.055 3.699
138 1 1 0.0 72.066 68.372 3.967
139 1 1 0.0 72.497 68.198 5.307
140 1 1 0.0 73.843 67.845 5.575
141 1 1 0.0 74.304 67.785 6.914
142 1 1 0.0 75.696 67.785 7.182
143 1 1 0.0 76.157 67.845 8.522
144 1 1 0.0 77.503 68.198 8.790
145 1 1 0.0 77.934 68.372 10.130
146 1 1 0.0 79.147 69.055 10.398
147 1 1 0.0 71.243 68.802 1.287
148 1 1 0.0 72.497 68.198 1.555
149 1 1 0.0 72.938 68.051 2.895
150 1 1 0.0 74.304 67.785 3.163
151 1 1 0.0 74.768 67.756 4.503
152 1 1 0.0 76.157 67.845 4.771
153 1 1 0.0 76.613 67.934 6.111
154 1 1 0.0 77.934 68.372 6.378
155 1 1 0.0 78.353 68.574 7.718
156 1 1 0.0 79.519 69.333 7.986
157 1 1 0.0 79.873 69.634 9.326
158 1 1 0.0 80.809 70.665 9.594
159 1 1 0.0 81.075 71.046 10.934
160 1 1 0.0 81.718 72.280 11.202
161 1 1 0.0 73.387 67.934 0.483
162 1 1 0.0 74.768 67.756 0.751
163 1 1 0.0 75.232 67.756 2.091
164 1 1 0.0 76.613 67.934 2.359
165 1 1 0.0 77.062 68.051 3.699
166 1 1 0.0 78.353 68.574 3.967
167 1 1 0.0 78.757 68.802 5.307
168 1 1 0.0 79.873 69.634 5.575
169 1 1 0.0 80.207 69.958 6.914
170 1 1 0.0 81.075 71.046 7.182
171 1 1 0.0 81.315 71.443 8.522
172 1 1 0.0 81.879 72.716 8.790
173 1 1 0.0 82.011 73.161 10.130
174 1 1 0.0 82.233 74.536 10.398
175 1 1 0.0 77.503 68.198 1.287
176 1 1 0.0 78.757 68.802 1.555
177 1 1 0.0 79.147 69.055 2.895
178 1 1 0.0 80.207 69.958 3.163
179 1 1 0.0 80.519 70.302 4.503
180 1 1 0.0 81.315 71.443 4.771
181 1 1 0.0 81.530 71.855 6.111
182 1 1 0.0 82.011 73.161 6.378
183 1 1 0.0 82.114 73.614 7.718
184 1 1 0.0 82.248 75.000 7.986
185 1 1 0.0 79.519 69.333 0.483
186 1 1 0.0 80.519 70.302 0.751
187 1 1 0.0 80.809 70.665 2.091
188 1 1 0.0 81.530 71.855 2.359
189 1 1 0.0 81.718 72.280 3.699
190 1 1 0.0 82.114 73.614 3.967
191 1 1 0.0 82.189 74.073 5.307
192 1 1 0.0 82.233 75.464 5.575
193 1 1 0.0 81.879 72.716 1.287
194 1 1 0.0 82.189 74.073 1.555
195 1 1 0.0 82.233 74.536 2.895
196 1 1 0.0 82.189 75.927 3.163
197 1 1 0.0 82.233 75.464 20.581
198 1 1 0.0 82.011 76.839 20.849
199 1 1 0.0 81.879 77.284 22.189
200 1 1 0.0 81.315 78.557 22.457
201 1 1 0.0 82.189 75.927 18.169
202 1 1 0.0 81.879 77.284 18.437
203 1 1 0.0 81.718 77.720 19.777
204 1 1 0.0 81.075 78.954 20.045
205 1 1 0.0 80.809 79.335 21.385
206 1 1 0.0 79.873 80.366 21.653
207 1 1 0.0 82.114 76.386 15.758
208 1 1 0.0 81.718 77.720 16.026
209 1 1 0.0 81.530 78.145 17.366
210 1 1 0.0 80.809 79.335 17.634
211 1 1 0.0 80.519 79.698 18.973
212 1 1 0.0 79.519 80.667 19.241
213 1 1 0.0 79.147 80.945 20.581
214 1 1 0.0 77.934 81.628 20.849
215 1 1 0.0 77.503 81.802 22.189
216 1 1 0.0 76.157 82.155 22.457
217 1 1 0.0 82.248 75.000 11.738
218 1 1 0.0 82.114 76.386 12.006
219 1 1 0.0 82.011 76.839 13.346
220 1 1 0.0 81.530 78.145 13.614
221 1 1 0.0 81.315 78.557 14.954
222 1 1 0.0 80.519 79.698 15.222
223 1 1 0.0 80.207 80.042 16.562
224 1 1 0.0 79.147 80.945 16.830
225 1 1 0.0 78.757 81.198 18.169
226 1 1 0.0 77.503 81.802 18.437
227 1 1 0.0 77.062 81.949 19.777
228 1 1 0.0 75.696 82.215 20.045
229 1 1 0.0 75.232 82.244 21.385
230 1 1 0.0 73.843 82.155 21.653
231 1 1 0.0 81.075 78.954 12.542
232 1 1 0.0 80.207 80.042 12.810
233 1 1 0.0 79.873 80.366 14.150
234 1 1 0.0 78.757 81.198 14.418
235 1 1 0.0 78.353 81.426 15.758
236 1 1 0.0 77.062 81.949 16.026
237 1 1 0.0 76.613 82.066 17.366
238 1 1 0.0 75.232 82.244 17.634
239 1 1 0.0 74.768 82.244 18.973
240 1 1 0.0 73.387 82.066 19.241
241 1 1 0.0 72.938 81.949 20.581
242 1 1 0.0 71.647 81.426 20.849
243 1 1 0.0 71.243 81.198 22.189
244 1 1 0.0 70.127 80.366 22.457
245 1 1 0.0 79.519 80.667 11.738
246 1 1 0.0 78.353 81.426 12.006
247 1 1 0.0 77.934 81.628 13.346
248 1 1 0.0 76.613 82.066 13.614
249 1 1 0.0 76.157 82.155 14.954
250 1 1 0.0 74.768 82.244 15.222
251 1 1 0.0 74.304 82.215 16.562
252 1 1 0.0 72.938 81.949 16.830
253 1 1 0.0 72.497 81.802 18.169
254 1 1 0.0 71.243 81.198 18.437
255 1 1 0.0 70.853 80.945 19.777
256 1 1 0.0 69.793 80.042 20.045
257 1 1 0.0 69.481 79.698 21.385
258 1 1 0.0 68.685 78.557 21.653
259 1 1 0.0 75.696 82.215 12.542
260 1 1 0.0 74.304 82.215 12.810
261 1 1 0.0 73.843 82.155 14.150
262 1 1 0.0 72.497 81.802 14.418
263 1 1 0.0 72.066 81.628 15.758
264 1 1 0.0 70.853 80.945 16.026
265 1 1 0.0 70.481 80.667 17.366
266 1 1 0.0 69.481 79.698 17.634
267 1 1 0.0 69.191 79.335 18.973
268 1 1 0.0 68.470 78.145 19.241
269 1 1 0.0 68.282 77.720 20.581
270 1 1 0.0 67.886 76.386 20.849
271 1 1 0.0 67.811 75.927 22.189
272 1 1 0.0 67.767 74.536 22.457
273 1 1 0.0 73.387 82.066 11.738
274 1 1 0.0 72.066 81.628 12.006
275 1 1 0.0 71.647 81.426 13.346
276 1 1 0.0 70.481 80.667 13.614
277 1 1 0.0 70.127 80.366 14.954
278 1 1 0.0 69.191 79.335 15.222
279 1 1 0.0 68.925 78.954 16.562
280 1 1 0.0 68.282 77.720 16.830
281 1 1 0.0 68.121 77.284 18.169
282 1 1 0.0 67.811 75.927 18.437
283 1 1 0.0 67.767 75.464 19.777
284 1 1 0.0 67.811 74.073 20.045
285 1 1 0.0 67.886 73.614 21.385
286 1 1 0.0 68.282 72.280 21.653
287 1 1 0.0 69.793 80.042 12.542
288 1 1 0.0 68.925 78.954 12.810
289 1 1 0.0 68.685 78.557 14.150
290 1 1 0.0 68.121 77.284 14.418
291 1 1 0.0 67.989 76.839 15.758
292 1 1 0.0 67.767 75.464 16.026
293 1 1 0.0 67.752 75.000 17.366
294 1 1 0.0 67.886 73.614 17.634
295 1 1 0.0 67.989 73.161 18.973
296 1 1 0.0 68.470 71.855 19.241
297 1 1 0.0 68.685 71.443 20.581
298 1 1 0.0 69.481 70.302 20.849
299 1 1 0.0 69.793 69.958 22.189
300 1 1 0.0 70.853 69.055 22.457
301 1 1 0.0 68.470 78.145 11.738
302 1 1 0.0 67.989 76.839 12.006
303 1 1 0.0 67.886 76.386 13.346
304 1 1 0.0 67.752 75.000 13.614
305 1 1 0.0 67.767 74.536 14.954
306 1 1 0.0 67.989 73.161 15.222
307 1 1 0.0 68.121 72.716 16.562
308 1 1 0.0 68.685 71.443 16.830
309 1 1 0.0 68.925 71.046 18.169
310 1 1 0.0 69.793 69.958 18.437
311 1 1 0.0 70.127 69.634 19.777
312 1 1 0.0 71.243 68.802 20.045
313 1 1 0.0 71.647 68.574 21.385
314 1 1 0.0 72.938 68.051 21.653
315 1 1 0.0 67.811 74.073 12.542
316 1 1 0.0 68.121 72.716 12.810
317 1 1 0.0 68.282 72.280 14.150
318 1 1 0.0 68.925 71.046 14.418
319 1 1 0.0 69.191 70.665 15.758
320 1 1 0.0 70.127 69.634 16.026
321 1 1 0.0 70.481 69.333 17.366
322 1 1 0.0 71.647 68.574 17.634
323 1 1 0.0 72.066 68.372 18.973
324 1 1 0.0 73.387 67.934 19.241
325 1 1 0.0 73.843 67.845 20.581
326 1 1 0.0 75.232 67.756 20.849
327 1 1 0.0 75.696 67.785 22.189
328 1 1 0.0 77.062 68.051 22.457
329 1 1 0.0 68.470 71.855 11.738
330 1 1 0.0 69.191 70.665 12.006
331 1 1 0.0 69.481 70.302 13.346
332 1 1 0.0 70.481 69.333 13.614
333 1 1 0.0 70.853 69.055 14.954
334 1 1 0.0 72.066 68.372 15.222
335 1 1 0.0 72.497 68.198 16.562
336 1 1 0.0 73.843 67.845 16.830
337 1 1 0.0 74.304 67.785 18.169
338 1 1 0.0 75.696 67.785 18.437
339 1 1 0.0 76.157 67.845 19.777
340 1 1 0.0 77.503 68.198 20.045
341 1 1 0.0 77.934 68.372 21.385
342 1 1 0.0 79.147 69.055 21.653
343 1 1 0.0 71.243 68.802 12.542
344 1 1 0.0 72.497 68.198 12.810
345 1 1 0.0 72.938 68.051 14.150
346 1 1 0.0 74.304 67.785 14.418
347 1 1 0.0 74.768 67.756 15.758
348 1 1 0.0 76.157 67.845 16.026
349 1 1 0.0 76.613 67.934 17.366
350 1 1 0.0 77.934 68.372 17.634
351 1 1 0.0 78.353 68.574 18.973
352 1 1 0.0 79.519 69.333 19.241
353 1 1 0.0 79.873 69.634 20.581
354 1 1 0.0 80.809 70.665 20.849
355 1 1 0.0 81.075 71.046 22.189
356 1 1 0.0 81.718 72.280 22.457
357 1 1 0.0 73.387 67.934 11.738
358 1 1 0.0 74.768 67.756 12.006
359 1 1 0.0 75.232 67.756 13.346
360 1 1 0.0 76.613 67.934 13.614
361 1 1 0.0 77.062 68.051 14.954
362 1 1 0.0 78.353 68.574 15.222
363 1 1 0.0 78.757 68.802 16.562
364 1 1 0.0 79.873 69.634 16.830
365 1 1 0.0 80.207 69.958 18.169
366 1 1 0.0 81.075 71.046 18.437
367 1 1 0.0 81.315 71.443 19.777
368 1 1 0.0 81.879 72.716 20.045
369 1 1 0.0 82.011 73.161 21.385
370 1 1 0.0 82.233 74.536 21.653
371 1 1 0.0 77.503 68.198 12.542
372 1 1 0.0 78.757 68.802 12.810
373 1 1 0.0 79.147 69.055 14.150
374 1 1 0.0 80.207 69.958 14.418
375 1 1 0.0 80.519 70.302 15.758
376 1 1 0.0 81.315 71.443 16.026
377 1 1 0.0 81.530 71.855 17.366
378 1 1 0.0 82.011 73.161 17.634
379 1 1 0.0 82.114 73.614 18.973
380 1 1 0.0 82.248 75.000 19.241
381 1 1 0.0 79.519 69.333 11.738
382 1 1 0.0 80.519 70.302 12.006
383 1 1 0.0 80.809 70.665 13.346
384 1 1 0.0 81.530 71.855 13.614
385 1 1 0.0 81.718 72.280 14.954
386 1 1 0.0 82.114 73.614 15.222
387 1 1 0.0 82.189 74.073 16.562
388 1 1 0.0 82.233 75.464 16.830
389 1 1 0.0 81.879 72.716 12.542
390 1 1 0.0 82.189 74.073 12.810
391 1 1 0.0 82.233 74.536 14.150
392 1 1 0.0 82.189 75.927 14.418
393 1 1 0.0 82.233 75.464 31.836
394 1 1 0.0 82.011 76.839 32.104
395 1 1 0.0 81.879 77.284 33.444
396 1 1 0.0 81.315 78.557 33.712
397 1 1 0.0 82.189 75.927 29.424
398 1 1 0.0 81.879 77.284 29.692
399 1 1 0.0 81.718 77.720 31.032
400 1 1 0.0 81.075 78.954 31.300
401 1 1 0.0 80.809 79.335 32.640
402 1 1 0.0 79.873 80.366 32.908
403 1 1 0.0 82.114 76.386 27.013
404 1 1 0.0 81.718 77.720 27.281
405 1 1 0.0 81.530 78.145 28.621
406 1 1 0.0 80.809 79.335 28.889
407 1 1 0.0 80.519 79.698 30.228
408 1 1 0.0 79.519 80.667 30.496
409 1 1 0.0 79.147 80.945 31.836
410 1 1 0.0 77.934 81.628 32.104
411 1 1 0.0 77.503 81.802 33.444
412 1 1 0.0 76.157 82.155 33.712
413 1 1 0.0 82.248 75.000 22.993
414 1 1 0.0 82.114 76.386 23.261
415 1 1 0.0 82.011 76.839 24.601
416 1 1 0.0 81.530 78.145 24.869
417 1 1 0.0 81.315 78.557 26.209
418 1 1 0.0 80.519 79.698 26.477
419 1 1 0.0 80.207 80.042 27.817
420 1 1 0.0 79.147 80.945 28.085
421 1 1 0.0 78.757 81.198 29.424
422 1 1 0.0 77.503 81.802 29.692
423 1 1 0.0 77.062 81.949 31.032
424 1 1 0.0 75.696 82.215 31.300
425 1 1 0.0 75.232 82.244 32.640
426 1 1 0.0 73.843 82.155 32.908
427 1 1 0.0 81.075 78.954 23.797
428 1 1 0.0 80.207 80.042 24.065
429 1 1 0.0 79.873 80.366 25.405
430 1 1 0.0 78.757 81.198 25.673
431 1 1 0.0 78.353 81.426 27.013
432 1 1 0.0 77.062 81.949 27.281
433 1 1 0.0 76.613 82.066 28.621
434 1 1 0.0 75.232 82.244 28.889
435 1 1 0.0 74.768 82.244 30.228
436 1 1 0.0 73.387 82.066 30.496
437 1 1 0.0 72.938 81.949 31.836
438 1 1 0.0 71.647 81.426 32.104
439 1 1 0.0 71.243 81.198 33.444
440 1 1 0.0 70.127 80.366 33.712
441 1 1 0.0 79.519 80.667 22.993
442 1 1 0.0 78.353 81.426 23.261
443 1 1 0.0 77.934 81.628 24.601
444 1 1 0.0 76.613 82.066 24.869
445 1 1 0.0 76.157 82.155 26.209
446 1 1 0.0 74.768 82.244 26.477
447 1 1 0.0 74.304 82.215 27.817
448 1 1 0.0 72.938 81.949 28.085
449 1 1 0.0 72.497 81.802 29.424
450 1 1 0.0 71.243 81.198 29.692
451 1 1 0.0 70.853 80.945 31.032
452 1 1 0.0 69.793 80.042 31.300
453 1 1 0.0 69.481 79.698 32.640
454 1 1 0.0 68.685 78.557 32.908
455 1 1 0.0 75.696 82.215 23.797
456 1 1 0.0 74.304 82.215 24.065
457 1 1 0.0 73.843 82.155 25.405
458 1 1 0.0 72.497 81.802 25.673
459 1 1 0.0 72.066 81.628 27.013
460 1 1 0.0 70.853 80.945 27.281
461 1 1 0.0 70.481 80.667 28.621
462 1 1 0.0 69.481 79.698 28.889
463 1 1 0.0 69.191 79.335 30.228
464 1 1 0.0 68.470 78.145 30.496
465 1 1 0.0 68.282 77.720 31.836
466 1 1 0.0 67.886 76.386 32.104
467 1 1 0.0 67.811 75.927 33.444
468 1 1 0.0 67.767 74.536 33.712
469 1 1 0.0 73.387 82.066 22.993
470 1 1 0.0 72.066 81.628 23.261
471 1 1 0.0 71.647 81.426 24.601
472 1 1 0.0 70.481 80.667 24.869
473 1 1 0.0 70.127 80.366 26.209
474 1 1 0.0 69.191 79.335 26.477
475 1 1 0.0 68.925 78.954 27.817
476 1 1 0.0 68.282 77.720 28.085
477 1 1 0.0 68.121 77.284 29.424
478 1 1 0.0 67.811 75.927 29.692
479 1 1 0.0 67.767 75.464 31.032
480 1 1 0.0 67.811 74.073 31.300
481 1 1 0.0 67.886 73.614 32.640
482 1 1 0.0 68.282 72.280 32.908
483 1 1 0.0 69.793 80.042 23.797
484 1 1 0.0 68.925 78.954 24.065
485 1 1 0.0 68.685 78.557 25.405
486 1 1 0.0 68.121 77.284 25.673
487 1 1 0.0 67.989 76.839 27.013
488 1 1 0.0 67.767 75.464 27.281
489 1 1 0.0 67.752 75.000 28.621
490 1 1 0.0 67.886 73.614 28.889
491 1 1 0.0 67.989 73.161 30.228
492 1 1 0.0 68.470 71.855 30.496
493 1 1 0.0 68.685 71.443 31.836
494 1 1 0.0 69.481 70.302 32.104
495 1 1 0.0 69.793 69.958 33.444
496 1 1 0.0 70.853 69.055 33.712
497 1 1 0.0 68.470 78.145 22.993
498 1 1 0.0 67.989 76.839 23.261
499 1 1 0.0 67.886 76.386 24.601
500 1 1 0.0 67.752 75.000 24.869
501 1 1 0.0 67.767 74.536 26.209
502 1 1 0.0 67.989 73.161 26.477
503 1 1 0.0 68.121 72.716 27.817
504 1 1 0.0 68.685 71.443 28.085
505 1 1 0.0 68.925 71.046 29.424
506 1 1 0.0 69.793 69.958 29.692
507 1 1 0.0 70.127 69.634 31.032
508 1 1 0.0 71.243 68.802 31.300
509 1 1 0.0 71.647 68.574 32.640
510 1 1 0.0 72.938 68.051 32.908
511 1 1 0.0 67.811 74.073 23.797
512 1 1 0.0 68.121 72.716 24.065
513 1 1 0.0 68.282 72.280 25.405
514 1 1 0.0 68.925 71.046 25.673
515 1 1 0.0 69.191 70.665 27.013
516 1 1 0.0 70.127 69.634 27.281
517 1 1 0.0 70.481 69.333 28.621
518 1 1 0.0 71.647 68.574 28.889
519 1 1 0.0 72.066 68.372 30.228
520 1 1 0.0 73.387 67.934 30.496
521 1 1 0.0 73.843 67.845 31.836
522 1 1 0.0 75.232 67.756 32.104
523 1 1 0.0 75.696 67.785 33.444
524 1 1 0.0 77.062 68.051 33.712
525 1 1 0.0 68.470 71.855 22.993
526 1 1 0.0 69.191 70.665 23.261
527 1 1 0.0 69.481 70.302 24.601
528 1 1 0.0 70.481 69.333 24.869
529 1 1 0.0 70.853 69.055 26.209
530 1 1 0.0 72.066 68.372 26.477
531 1 1 0.0 72.497 68.198 27.817
532 1 1 0.0 73.843 67.845 28.085
533 1 1 0.0 74.304 67.785 29.424
534 1 1 0.0 75.696 67.785 29.692
535 1 1 0.0 76.157 67.845 31.032
536 1 1 0.0 77.503 68.198 31.300
537 1 1 0.0 77.934 68.372 32.640
538 1 1 0.0 79.147 69.055 32.908
539 1 1 0.0 71.243 68.802 23.797
540 1 1 0.0 72.497 68.198 24.065
541 1 1 0.0 72.938 68.051 25.405
542 1 1 0.0 74.304 67.785 25.673
543 1 1 0.0 74.768 67.756 27.013
544 1 1 0.0 76.157 67.845 27.281
545 1 1 0.0 76.613 67.934 28.621
546 1 1 0.0 77.934 68.372 28.889
547 1 1 0.0 78.353 68.574 30.228
548 1 1 0.0 79.519 69.333 30.496
549 1 1 0.0 79.873 69.634 31.836
550 1 1 0.0 80.809 70.665 32.104
551 1 1 0.0 81.075 71.046 33.444
552 1 1 0.0 81.718 72.280 33.712
553 1 1 0.0 73.387 67.934 22.993
554 1 1 0.0 74.768 67.756 23.261
555 1 1 0.0 75.232 67.756 24.601
556 1 1 0.0 76.613 67.934 24.869
557 1 1 0.0 77.062 68.051 26.209
558 1 1 0.0 78.353 68.574 26.477
559 1 1 0.0 78.757 68.802 27.817
560 1 1 0.0 79.873 69.634 28.085
561 1 1 0.0 80.207 69.958 29.424
562 1 1 0.0 81.075 71.046 29.692
563 1 1 0.0 81.315 71.443 31.032
564 1 1 0.0 81.879 72.716 31.300
565 1 1 0.0 82.011 73.161 32.640
566 1 1 0.0 82.233 74.536 32.908
567 1 1 0.0 77.503 68.198 23.797
568 1 1 0.0 78.757 68.802 24.065
569 1 1 0.0 79.147 69.055 25.405
570 1 1 0.0 80.207 69.958 25.673
571 1 1 0.0 80.519 70.302 27.013
572 1 1 0.0 81.315 71.443 27.281
573 1 1 0.0 81.530 71.855 28.621
574 1 1 0.0 82.011 73.161 28.889
575 1 1 0.0 82.114 73.614 30.228
576 1 1 0.0 82.248 75.000 30.496
577 1 1 0.0 79.519 69.333 22.993
578 1 1 0.0 80.519 70.302 23.261
579 1 1 0.0 80.809 70.665 24.601
580 1 1 0.0 81.530 71.855 24.869
581 1 1 0.0 81.718 72.280 26.209
582 1 1 0.0 82.114 73.614 26.477
583 1 1 0.0 82.189 74.073 27.817
584 1 1 0.0 82.233 75.464 28.085
585 1 1 0.0 81.879 72.716 23.797
586 1 1 0.0 82.189 74.073 24.065
587 1 1 0.0 82.233 74.536 25.405
588 1 1 0.0 82.189 75.927 25.673
589 1 1 0.0 82.233 75.464 43.091
590 1 1 0.0 82.011 76.839 43.359
591 1 1 0.0 81.879 77.284 44.699
592 1 1 0.0 81.315 78.557 44.967
593 1 1 0.0 82.189 75.927 40.680
594 1 1 0.0 81.879 77.284 40.947
595 1 1 0.0 81.718 77.720 42.287
596 1 1 0.0 81.075 78.954 42.555
597 1 1 0.0 80.809 79.335 43.895
598 1 1 0.0 79.873 80.366 44.163
599 1 1 0.0 82.114 76.386 38.268
600 1 1 0.0 81.718 77.720 38.536
601 1 1 0.0 81.530 78.145 39.876
602 1 1 0.0 80.809 79.335 40.144
603 1 1 0.0 80.519 79.698 41.483
604 1 1 0.0 79.519 80.667 41.751
605 1 1 0.0 79.147 80.945 43.091
606 1 1 0.0 77.934 81.628 43.359
607 1 1 0.0 77.503 81.802 44.699
608 1 1 0.0 76.157 82.155 44.967
609 1 1 0.0 82.248 75.000 34.248
610 1 1 0.0 82.114 76.386 34.516
611 1 1 0.0 82.011 76.839 35.856
612 1 1 0.0 81.530 78.145 36.124
613 1 1 0.0 81.315 78.557 37.464
614 1 1 0.0 80.519 79.698 37.732
615 1 1 0.0 80.207 80.042 39.072
616 1 1 0.0 79.147 80.945 39.340
617 1 1 0.0 78.757 81.198 40.680
618 1 1 0.0 77.503 81.802 40.947
619 1 1 0.0 77.062 81.949 42.287
620 1 1 0.0 75.696 82.215 42.555
621 1 1 0.0 75.232 82.244 43.895
622 1 1 0.0 73.843 82.155 44.163
623 1 1 0.0 81.075 78.954 35.052
624 1 1 0.0 80.207 80.042 35.320
625 1 1 0.0 79.873 80.366 36.660
626 1 1 0.0 78.757 81.198 36.928
627 1 1 0.0 78.353 81.426 38.268
628 1 1 0.0 77.062 81.949 38.536
629 1 1 0.0 76.613 82.066 39.876
630 1 1 0.0 75.232 82.244 40.144
631 1 1 0.0 74.768 82.244 41.483
632 1 1 0.0 73.387 82.066 41.751
633 1 1 0.0 72.938 81.949 43.091
634 1 1 0.0 71.647 81.426 43.359
635 1 1 0.0 71.243 81.198 44.699
636 1 1 0.0 70.127 80.366 44.967
637 1 1 0.0 79.519 80.667 34.248
638 1 1 0.0 78.353 81.426 34.516
639 1 1 0.0 77.934 81.628 35.856
640 1 1 0.0 76.613 82.066 36.124
641 1 1 0.0 76.157 82.155 37.464
642 1 1 0.0 74.768 82.244 37.732
643 1 1 0.0 74.304 82.215 39.072
644 1 1 0.0 72.938 81.949 39.340
645 1 1 0.0 72.497 81.802 40.680
646 1 1 0.0 71.243 81.198 40.947
647 1 1 0.0 70.853 80.945 42.287
648 1 1 0.0 69.793 80.042 42.555
649 1 1 0.0 69.481 79.698 43.895
650 1 1 0.0 68.685 78.557 44.163
651 1 1 0.0 75.696 82.215 35.052
652 1 1 0.0 74.304 82.215 35.320
653 1 1 0.0 73.843 82.155 36.660
654 1 1 0.0 72.497 81.802 36.928
655 1 1 0.0 72.066 81.628 38.268
656 1 1 0.0 70.853 80.945 38.536
657 1 1 0.0 70.481 80.667 39.876
658 1 1 0.0 69.481 79.698 40.144
659 1 1 0.0 69.191 79.335 41.483
660 1 1 0.0 68.470 78.145 41.751
661 1 1 0.0 68.282 77.720 43.091
662 1 1 0.0 67.886 76.386 43.359
663 1 1 0.0 67.811 75.927 44.699
664 1 1 0.0 67.767 74.536 44.967
665 1 1 0.0 73.387 82.066 34.248
666 1 1 0.0 72.066 81.628 34.516
667 1 1 0.0 71.647 81.426 35.856
668 1 1 0.0 70.481 80.667 36.124
669 1 1 0.0 70.127 80.366 37.464
670 1 1 0.0 69.191 79.335 37.732
671 1 1 0.0 68.925 78.954 39.072
672 1 1 0.0 68.282 77.720 39.340
673 1 1 0.0 68.121 77.284 40.680
674 1 1 0.0 67.811 75.927 40.947
675 1 1 0.0 67.767 75.464 42.287
676 1 1 0.0 67.811 74.073 42.555
677 1 1 0.0 67.886 73.614 43.895
678 1 1 0.0 68.282 72.280 44.163
679 1 1 0.0 69.793 80.042 35.052
680 1 1 0.0 68.925 78.954 35.320
681 1 1 0.0 68.685 78.557 36.660
682 1 1 0.0 68.121 77.284 36.928
683 1 1 0.0 67.989 76.839 38.268
684 1 1 0.0 67.767 75.464 38.536
685 1 1 0.0 67.752 75.000 39.876
686 1 1 0.0 67.886 73.614 40.144
687 1 1 0.0 67.989 73.161 41.483
688 1 1 0.0 68.470 71.855 41.751
689 1 1 0.0 68.685 71.443 43.091
690 1 1 0.0 69.481 70.302 43.359
691 1 1 0.0 69.793 69.958 44.699
692 1 1 0.0 70.853 69.055 44.967
693 1 1 0.0 68.470 78.145 34.248
694 1 1 0.0 67.989 76.839 34.516
695 1 1 0.0 67.886 76.386 35.856
696 1 1 0.0 67.752 75.000 36.124
697 1 1 0.0 67.767 74.536 37.464
698 1 1 0.0 67.989 73.161 37.732
699 1 1 0.0 68.121 72.716 39.072
700 1 1 0.0 68.685 71.443 39.340
701 1 1 0.0 68.925 71.046 40.680
702 1 1 0.0 69.793 69.958 40.947
703 1 1 0.0 70.127 69.634 42.287
704 1 1 0.0 71.243 68.802 42.555
705 1 1 0.0 71.647 68.574 43.895
706 1 1 0.0 72.938 68.051 44.163
707 1 1 0.0 67.811 74.073 35.052
708 1 1 0.0 68.121 72.716 35.320
709 1 1 0.0 68.282 72.280 36.660
710 1 1 0.0 68.925 71.046 36.928
711 1 1 0.0 69.191 70.665 38.268
712 1 1 0.0 70.127 69.634 38.536
713 1 1 0.0 70.481 69.333 39.876
714 1 1 0.0 71.647 68.574 40.144
715 1 1 0.0 72.066 68.372 41.483
716 1 1 0.0 73.387 67.934 41.751
717 1 1 0.0 73.843 67.845 43.091
718 1 1 0.0 75.232 67.756 43.359
719 1 1 0.0 75.696 67.785 44.699
720 1 1 0.0 77.062 68.051 44.967
721 1 1 0.0 68.470 71.855 34.248
722 1 1 0.0 69.191 70.665 34.516
723 1 1 0.0 69.481 70.302 35.856
724 1 1 0.0 70.481 69.333 36.124
725 1 1 0.0 70.853 69.055 37.464
726 1 1 0.0 72.066 68.372 37.732
727 1 1 0.0 72.497 68.198 39.072
728 1 1 0.0 73.843 67.845 39.340
729 1 1 0.0 74.304 67.785 40.680
730 1 1 0.0 75.696 67.785 40.947
731 1 1 0.0 76.157 67.845 42.287
732 1 1 0.0 77.503 68.198 42.555
733 1 1 0.0 77.934 68.372 43.895
734 1 1 0.0 79.147 69.055 44.163
735 1 1 0.0 71.243 68.802 35.052
736 1 1 0.0 72.497 68.198 35.320
737 1 1 0.0 72.938 68.051 36.660
738 1 1 0.0 74.304 67.785 36.928
739 1 1 0.0 74.768 67.756 38.268
740 1 1 0.0 76.157 67.845 38.536
741 1 1 0.0 76.613 67.934 39.876
742 1 1 0.0 77.934 68.372 40.144
743 1 1 0.0 78.353 68.574 41.483
744 1 1 0.0 79.519 69.333 41.751
745 1 1 0.0 79.873 69.634 43.091
746 1 1 0.0 80.809 70.665 43.359
747 1 1 0.0 81.075 71.046 44.699
748 1 1 0.0 81.718 72.280 44.967
749 1 1 0.0 73.387 67.934 34.248
750 1 1 0.0 74.768 67.756 34.516
751 1 1 0.0 75.232 67.756 35.856
752 1 1 0.0 76.613 67.934 36.124
753 1 1 0.0 77.062 68.051 37.464
754 1 1 0.0 78.353 68.574 37.732
755 1 1 0.0 78.757 68.802 39.072
756 1 1 0.0 79.873 69.634 39.340
757 1 1 0.0 80.207 69.958 40.680
758 1 1 0.0 81.075 71.046 40.947
759 1 1 0.0 81.315 71.443 42.287
760 1 1 0.0 81.879 72.716 42.555
761 1 1 0.0 82.011 73.161 43.895
762 1 1 0.0 82.233 74.536 44.163
763 1 1 0.0 77.503 68.198 35.052
764 1 1 0.0 78.757 68.802 35.320
765 1 1 0.0 79.147 69.055 36.660
766 1 1 0.0 80.207 69.958 36.928
767 1 1 0.0 80.519 70.302 38.268
768 1 1 0.0 81.315 71.443 38.536
769 1 1 0.0 81.530 71.855 39.876
770 1 1 0.0 82.011 73.161 40.144
771 1 1 0.0 82.114 73.614 41.483
772 1 1 0.0 82.248 75.000 41.751
773 1 1 0.0 79.519 69.333 34.248
774 1 1 0.0 80.519 70.302 34.516
775 1 1 0.0 80.809 70.665 35.856
776 1 1 0.0 81.530 71.855 36.124
777 1 1 0.0 81.718 72.280 37.464
778 1 1 0.0 82.114 73.614 37.732
779 1 1 0.0 82.189 74.073 39.072
780 1 1 0.0 82.233 75.464 39.340
781 1 1 0.0 81.879 72.716 35.052
782 1 1 0.0 82.189 74.073 35.320
783 1 1 0.0 82.233 74.536 36.660
784 1 1 0.0 82.189 75.927 36.928
785 1 1 0.0 82.233 75.464 54.346
786 1 1 0.0 82.011 76.839 54.614
787 1 1 0.0 81.879 77.284 55.954
788 1 1 0.0 81.315 78.557 56.222
789 1 1 0.0 82.189 75.927 51.935
790 1 1 0.0 81.879 77.284 52.203
791 1 1 0.0 81.718 77.720 53.542
792 1 1 0.0 81.075 78.954 53.810
793 1 1 0.0 80.809 79.335 55.150
794 1 1 0.0 79.873 80.366 55.418
795 1 1 0.0 82.114 76.386 49.523
796 1 1 0.0 81.718 77.720 49.791
797 1 1 0.0 81.530 78.145 51.131
798 1 1 0.0 80.809 79.335 51.399
799 1 1 0.0 80.519 79.698 52.738
800 1 1 0.0 79.519 80.667 53.006
801 1 1 0.0 79.147 80.945 54.346
802 1 1 0.0 77.934 81.628 54.614
803 1 1 0.0 77.503 81.802 55.954
804 1 1 0.0 76.157 82.155 56.222
805 1 1 0.0 82.248 75.000 45.503
806 1 1 0.0 82.114 76.386 45.771
807 1 1 0.0 82.011 76.839 47.111
808 1 1 0.0 81.530 78.145 47.379
809 1 1 0.0 81.315 78.557 48.719
810 1 1 0.0 80.519 79.698 48.987
811 1 1 0.0 80.207 80.042 50.327
812 1 1 0.0 79.147 80.945 50.595
813 1 1 0.0 78.757 81.198 51.935
814 1 1 0.0 77.503 81.802 52.203
815 1 1 0.0 77.062 81.949 53.542
816 1 1 0.0 75.696 82.215 53.810
817 1 1 0.0 75.232 82.244 55.150
818 1 1 0.0 73.843 82.155 55.418
819 1 1 0.0 81.075 78.954 46.307
820 1 1 0.0 80.207 80.042 46.575
821 1 1 0.0 79.873 80.366 47.915
822 1 1 0.0 78.757 81.198 48.183
823 1 1 0.0 78.353 81.426 49.523
824 1 1 0.0 77.062 81.949 49.791
825 1 1 0.0 76.613 82.066 51.131
826 1 1 0.0 75.232 82.244 51.399
827 1 1 0.0 74.768 82.244 52.738
828 1 1 0.0 73.387 82.066 53.006
829 1 1 0.0 72.938 81.949 54.346
830 1 1 0.0 71.647 81.426 54.614
831 1 1 0.0 71.243 81.198 55.954
832 1 1 0.0 70.127 80.366 56.222
833 1 1 0.0 79.519 80.667 45.503
834 1 1 0.0 78.353 81.426 45.771
835 1 1 0.0 77.934 81.628 47.111
836 1 1 0.0 76.613 82.066 47.379
837 1 1 0.0 76.157 82.155 48.719
838 1 1 0.0 74.768 82.244 48.987
839 1 1 0.0 74.304 82.215 50.327
840 1 1 0.0 72.938 81.949 50.595
841 1 1 0.0 72.497 81.802 51.935
842 1 1 0.0 71.243 81.198 52.203
843 1 1 0.0 70.853 80.945 53.542
844 1 1 0.0 69.793 80.042 53.810
845 1 1 0.0 69.481 79.698 55.150
846 1 1 0.0 68.685 78.557 55.418
847 1 1 0.0 75.696 82.215 46.307
848 1 1 0.0 74.304 82.215 46.575
849 1 1 0.0 73.843 82.155 47.915
850 1 1 0.0 72.497 81.802 48.183
851 1 1 0.0 72.066 81.628 49.523
852 1 1 0.0 70.853 80.945 49.791
853 1 1 0.0 70.481 80.667 51.131
854 1 1 0.0 69.481 79.698 51.399
855 1 1 0.0 69.191 79.335 52.738
856 1 1 0.0 68.470 78.145 53.006
857 1 1 0.0 68.282 77.720 54.346
858 1 1 0.0 67.886 76.386 54.614
859 1 1 0.0 67.811 75.927 55.954
860 1 1 0.0 67.767 74.536 56.222
861 1 1 0.0 73.387 82.066 45.503
862 1 1 0.0 72.066 81.628 45.771
863 1 1 0.0 71.647 81.426 47.111
864 1 1 0.0 70.481 80.667 47.379
865 1 1 0.0 70.127 80.366 48.719
866 1 1 0.0 69.191 79.335 48.987
867 1 1 0.0 68.925 78.954 50.327
868 1 1 0.0 68.282 77.720 50.595
869 1 1 0.0 68.121 77.284 51.935
870 1 1 0.0 67.811 75.927 52.203
871 1 1 0.0 67.767 75.464 53.542
872 1 1 0.0 67.811 74.073 53.810
873 1 1 0.0 67.886 73.614 55.150
874 1 1 0.0 68.282 72.280 55.418
875 1 1 0.0 69.793 80.042 46.307
876 1 1 0.0 68.925 78.954 46.575
877 1 1 0.0 68.685 78.557 47.915
878 1 1 0.0 68.121 77.284 48.183
879 1 1 0.0 67.989 76.839 49.523
880 1 1 0.0 67.767 75.464 49.791
881 1 1 0.0 67.752 75.000 51.131
882 1 1 0.0 67.886 73.614 51.399
883 1 1 0.0 67.989 73.161 52.738
884 1 1 0.0 68.470 71.855 53.006
885 1 1 0.0 68.685 71.443 54.346
886 1 1 0.0 69.481 70.302 54.614
887 1 1 0.0 69.793 69.958 55.954
888 1 1 0.0 70.853 69.055 56.222
889 1 1 0.0 68.470 78.145 45.503
890 1 1 0.0 67.989 76.839 45.771
891 1 1 0.0 67.886 76.386 47.111
892 1 1 0.0 67.752 75.000 47.379
893 1 1 0.0 67.767 74.536 48.719
894 1 1 0.0 67.989 73.161 48.987
895 1 1 0.0 68.121 72.716 50.327
896 1 1 0.0 68.685 71.443 50.595
897 1 1 0.0 68.925 71.046 51.935
898 1 1 0.0 69.793 69.958 52.203
899 1 1 0.0 70.127 69.634 53.542
900 1 1 0.0 71.243 68.802 53.810
901 1 1 0.0 71.647 68.574 55.150
902 1 1 0.0 72.938 68.051 55.418
903 1 1 0.0 67.811 74.073 46.307
904 1 1 0.0 68.121 72.716 46.575
905 1 1 0.0 68.282 72.280 47.915
906 1 1 0.0 68.925 71.046 48.183
907 1 1 0.0 69.191 70.665 49.523
908 1 1 0.0 70.127 69.634 49.791
909 1 1 0.0 70.481 69.333 51.131
910 1 1 0.0 71.647 68.574 51.399