C35_1_13.pdb > C35_1_13.data (lammps datafile)

6415 atoms
1186 bonds
593 angles
0 dihedrals
0 impropers

3 atom types
1 bond types
1 angle types

0.0 150 xlo xhi
0.0 150 ylo yhi
0.0 350 zlo zhi

Masses

1 12.011
2 1.008
3 15.994

Atoms

1 1 1 0.0 80.188 76.085 16.981
2 1 1 0.0 79.781 77.289 17.610
3 1 1 0.0 79.741 77.371 19.025
4 1 1 0.0 79.040 78.431 19.654
5 1 1 0.0 80.237 75.817 12.736
6 1 1 0.0 79.892 77.040 13.365
7 1 1 0.0 79.856 77.123 14.780
8 1 1 0.0 79.212 78.218 15.409
9 1 1 0.0 79.156 78.290 16.824
10 1 1 0.0 78.253 79.185 17.453
11 1 1 0.0 78.181 79.240 18.868
12 1 1 0.0 77.081 79.875 19.497
13 1 1 0.0 80.272 75.546 8.491
14 1 1 0.0 79.990 76.785 9.119
15 1 1 0.0 79.959 76.871 10.535
16 1 1 0.0 79.372 77.997 11.163
17 1 1 0.0 79.319 78.072 12.579
18 1 1 0.0 78.464 79.012 13.208
19 1 1 0.0 78.395 79.071 14.623
20 1 1 0.0 77.329 79.762 15.252
21 1 1 0.0 77.247 79.801 16.667
22 1 1 0.0 76.040 80.198 17.296
23 1 1 0.0 75.950 80.215 18.711
24 1 1 0.0 74.682 80.291 19.340
25 1 1 0.0 80.293 75.274 4.245
26 1 1 0.0 80.076 76.526 4.874
27 1 1 0.0 80.049 76.613 6.289
28 1 1 0.0 79.520 77.768 6.918
29 1 1 0.0 79.472 77.845 8.333
30 1 1 0.0 78.666 78.828 8.962
31 1 1 0.0 78.600 78.890 10.377
32 1 1 0.0 77.571 79.636 11.006
33 1 1 0.0 77.491 79.679 12.421
34 1 1 0.0 76.306 80.137 13.050
35 1 1 0.0 76.217 80.159 14.465
36 1 1 0.0 74.955 80.301 15.094
37 1 1 0.0 74.864 80.299 16.509
38 1 1 0.0 73.606 80.114 17.138
39 1 1 0.0 73.519 80.090 18.553
40 1 1 0.0 72.350 79.591 19.182
41 1 1 0.0 80.300 75.001 0.000
42 1 1 0.0 80.147 76.263 0.629
43 1 1 0.0 80.125 76.351 2.044
44 1 1 0.0 79.656 77.532 2.673
45 1 1 0.0 79.612 77.611 4.088
46 1 1 0.0 78.858 78.634 4.717
47 1 1 0.0 78.795 78.700 6.132
48 1 1 0.0 77.806 79.497 6.761
49 1 1 0.0 77.728 79.545 8.176
50 1 1 0.0 76.568 80.063 8.805
51 1 1 0.0 76.481 80.090 10.220
52 1 1 0.0 75.227 80.296 10.849
53 1 1 0.0 75.136 80.299 12.264
54 1 1 0.0 73.871 80.179 12.893
55 1 1 0.0 73.783 80.159 14.308
56 1 1 0.0 72.590 79.721 14.937
57 1 1 0.0 72.509 79.679 16.352
58 1 1 0.0 71.467 78.952 16.981
59 1 1 0.0 71.400 78.890 18.396
60 1 1 0.0 70.578 77.922 19.025
61 1 1 0.0 78.981 78.500 1.887
62 1 1 0.0 78.034 79.347 2.516
63 1 1 0.0 77.959 79.398 3.931
64 1 1 0.0 76.827 79.976 4.560
65 1 1 0.0 76.741 80.007 5.975
66 1 1 0.0 75.500 80.277 6.604
67 1 1 0.0 75.409 80.285 8.019
68 1 1 0.0 74.139 80.230 8.648
69 1 1 0.0 74.050 80.215 10.063
70 1 1 0.0 72.836 79.839 10.692
71 1 1 0.0 72.753 79.801 12.107
72 1 1 0.0 71.675 79.128 12.736
73 1 1 0.0 71.605 79.071 14.151
74 1 1 0.0 70.734 78.146 14.780
75 1 1 0.0 70.681 78.072 16.195
76 1 1 0.0 70.074 76.955 16.824
77 1 1 0.0 70.041 76.871 18.239
78 1 1 0.0 69.738 75.636 18.868
79 1 1 0.0 76.997 79.910 1.730
80 1 1 0.0 75.771 80.244 2.358
81 1 1 0.0 75.680 80.257 3.774
82 1 1 0.0 74.410 80.268 4.403
83 1 1 0.0 74.320 80.257 5.818
84 1 1 0.0 73.088 79.944 6.447
85 1 1 0.0 73.003 79.910 7.862
86 1 1 0.0 71.892 79.294 8.491
87 1 1 0.0 71.819 79.240 9.906
88 1 1 0.0 70.901 78.361 10.535
89 1 1 0.0 70.844 78.290 11.950
90 1 1 0.0 70.181 77.206 12.579
91 1 1 0.0 70.144 77.123 13.994
92 1 1 0.0 69.778 75.906 14.623
93 1 1 0.0 69.763 75.817 16.038
94 1 1 0.0 69.720 74.547 16.667
95 1 1 0.0 69.728 74.456 18.082
96 1 1 0.0 70.010 73.217 18.711
97 1 1 0.0 74.591 80.285 1.572
98 1 1 0.0 73.345 80.036 2.201
99 1 1 0.0 73.259 80.007 3.616
100 1 1 0.0 72.117 79.448 4.245
101 1 1 0.0 72.041 79.398 5.660
102 1 1 0.0 71.080 78.567 6.289
103 1 1 0.0 71.019 78.500 7.704
104 1 1 0.0 70.301 77.452 8.333
105 1 1 0.0 70.259 77.371 9.748
106 1 1 0.0 69.832 76.174 10.377
107 1 1 0.0 69.812 76.085 11.792
108 1 1 0.0 69.703 74.819 12.421
109 1 1 0.0 69.707 74.728 13.836
110 1 1 0.0 69.924 73.476 14.465
111 1 1 0.0 69.951 73.389 15.880
112 1 1 0.0 70.480 72.234 16.509
113 1 1 0.0 70.528 72.157 17.924
114 1 1 0.0 71.334 71.174 18.553
115 1 1 0.0 72.272 79.545 1.415
116 1 1 0.0 71.269 78.765 2.044
117 1 1 0.0 71.205 78.700 3.459
118 1 1 0.0 70.433 77.690 4.088
119 1 1 0.0 70.388 77.611 5.503
120 1 1 0.0 69.899 76.438 6.132
121 1 1 0.0 69.875 76.351 7.547
122 1 1 0.0 69.701 75.092 8.176
123 1 1 0.0 69.700 75.001 9.591
124 1 1 0.0 69.853 73.739 10.220
125 1 1 0.0 69.875 73.651 11.635
126 1 1 0.0 70.344 72.470 12.264
127 1 1 0.0 70.388 72.391 13.679
128 1 1 0.0 71.142 71.368 14.308
129 1 1 0.0 71.205 71.302 15.723
130 1 1 0.0 72.194 70.505 16.352
131 1 1 0.0 72.272 70.457 17.767
132 1 1 0.0 73.432 69.939 18.396
133 1 1 0.0 70.528 77.845 1.258
134 1 1 0.0 69.980 76.699 1.887
135 1 1 0.0 69.951 76.613 3.302
136 1 1 0.0 69.713 75.365 3.931
137 1 1 0.0 69.707 75.274 5.346
138 1 1 0.0 69.794 74.006 5.975
139 1 1 0.0 69.812 73.917 7.390
140 1 1 0.0 70.219 72.713 8.019
141 1 1 0.0 70.259 72.631 9.434
142 1 1 0.0 70.960 71.571 10.063
143 1 1 0.0 71.019 71.502 11.478
144 1 1 0.0 71.966 70.655 12.107
145 1 1 0.0 72.041 70.604 13.522
146 1 1 0.0 73.173 70.026 14.151
147 1 1 0.0 73.259 69.995 15.566
148 1 1 0.0 74.500 69.725 16.195
149 1 1 0.0 74.591 69.717 17.610
150 1 1 0.0 75.861 69.772 18.239
151 1 1 0.0 69.728 75.546 1.101
152 1 1 0.0 69.750 74.275 1.730
153 1 1 0.0 69.763 74.185 3.145
154 1 1 0.0 70.108 72.962 3.774
155 1 1 0.0 70.144 72.879 5.189
156 1 1 0.0 70.788 71.784 5.818
157 1 1 0.0 70.844 71.712 7.233
158 1 1 0.0 71.747 70.817 7.862
159 1 1 0.0 71.819 70.762 9.277
160 1 1 0.0 72.919 70.127 9.906
161 1 1 0.0 73.003 70.092 11.321
162 1 1 0.0 74.229 69.758 11.950
163 1 1 0.0 74.320 69.745 13.365
164 1 1 0.0 75.590 69.734 13.994
165 1 1 0.0 75.680 69.745 15.409
166 1 1 0.0 76.912 70.058 16.038
167 1 1 0.0 76.997 70.092 17.453
168 1 1 0.0 78.108 70.708 18.082
169 1 1 0.0 70.041 73.131 0.943
170 1 1 0.0 70.628 72.005 1.572
171 1 1 0.0 70.681 71.930 2.987
172 1 1 0.0 71.536 70.990 3.616
173 1 1 0.0 71.605 70.931 5.031
174 1 1 0.0 72.671 70.240 5.660
175 1 1 0.0 72.753 70.201 7.075
176 1 1 0.0 73.960 69.804 7.704
177 1 1 0.0 74.050 69.787 9.119
178 1 1 0.0 75.318 69.711 9.748
179 1 1 0.0 75.409 69.717 11.163
180 1 1 0.0 76.655 69.966 11.792
181 1 1 0.0 76.741 69.995 13.208
182 1 1 0.0 77.883 70.554 13.836
183 1 1 0.0 77.959 70.604 15.252
184 1 1 0.0 78.920 71.435 15.880
185 1 1 0.0 78.981 71.502 17.296
186 1 1 0.0 79.699 72.550 17.924
187 1 1 0.0 71.400 71.112 0.786
188 1 1 0.0 72.429 70.366 1.415
189 1 1 0.0 72.509 70.323 2.830
190 1 1 0.0 73.694 69.865 3.459
191 1 1 0.0 73.783 69.843 4.874
192 1 1 0.0 75.045 69.701 5.503
193 1 1 0.0 75.136 69.703 6.918
194 1 1 0.0 76.394 69.888 7.547
195 1 1 0.0 76.481 69.912 8.962
196 1 1 0.0 77.650 70.411 9.591
197 1 1 0.0 77.728 70.457 11.006
198 1 1 0.0 78.731 71.237 11.635
199 1 1 0.0 78.795 71.302 13.050
200 1 1 0.0 79.567 72.312 13.679
201 1 1 0.0 79.612 72.391 15.094
202 1 1 0.0 80.101 73.564 15.723
203 1 1 0.0 80.125 73.651 17.138
204 1 1 0.0 80.299 74.910 17.767
205 1 1 0.0 73.519 69.912 0.629
206 1 1 0.0 74.773 69.706 1.258
207 1 1 0.0 74.864 69.703 2.673
208 1 1 0.0 76.129 69.823 3.302
209 1 1 0.0 76.217 69.843 4.717
210 1 1 0.0 77.410 70.281 5.346
211 1 1 0.0 77.491 70.323 6.761
212 1 1 0.0 78.533 71.050 7.390
213 1 1 0.0 78.600 71.112 8.805
214 1 1 0.0 79.422 72.080 9.434
215 1 1 0.0 79.472 72.157 10.849
216 1 1 0.0 80.020 73.303 11.478
217 1 1 0.0 80.049 73.389 12.893
218 1 1 0.0 80.287 74.637 13.522
219 1 1 0.0 80.293 74.728 14.937
220 1 1 0.0 80.206 75.996 15.566
221 1 1 0.0 75.950 69.787 0.472
222 1 1 0.0 77.164 70.163 1.101
223 1 1 0.0 77.247 70.201 2.516
224 1 1 0.0 78.325 70.874 3.145
225 1 1 0.0 78.395 70.931 4.560
226 1 1 0.0 79.266 71.856 5.189
227 1 1 0.0 79.319 71.930 6.604
228 1 1 0.0 79.926 73.047 7.233
229 1 1 0.0 79.959 73.131 8.648
230 1 1 0.0 80.262 74.366 9.277
231 1 1 0.0 80.272 74.456 10.692
232 1 1 0.0 80.250 75.727 11.321
233 1 1 0.0 78.181 70.762 0.314
234 1 1 0.0 79.099 71.641 0.943
235 1 1 0.0 79.156 71.712 2.358
236 1 1 0.0 79.819 72.796 2.987
237 1 1 0.0 79.856 72.879 4.403
238 1 1 0.0 80.222 74.096 5.031
239 1 1 0.0 80.237 74.185 6.447
240 1 1 0.0 80.280 75.455 7.075
241 1 1 0.0 79.741 72.631 0.157
242 1 1 0.0 80.168 73.828 0.786
243 1 1 0.0 80.188 73.917 2.201
244 1 1 0.0 80.297 75.183 2.830
245 1 1 0.0 80.188 76.085 36.163
246 1 1 0.0 79.781 77.289 36.792
247 1 1 0.0 79.741 77.371 38.207
248 1 1 0.0 79.040 78.431 38.836
249 1 1 0.0 80.237 75.817 31.918
250 1 1 0.0 79.892 77.040 32.547
251 1 1 0.0 79.856 77.123 33.962
252 1 1 0.0 79.212 78.218 34.591
253 1 1 0.0 79.156 78.290 36.006
254 1 1 0.0 78.253 79.185 36.635
255 1 1 0.0 78.181 79.240 38.050
256 1 1 0.0 77.081 79.875 38.679
257 1 1 0.0 80.272 75.546 27.673
258 1 1 0.0 79.990 76.785 28.302
259 1 1 0.0 79.959 76.871 29.717
260 1 1 0.0 79.372 77.997 30.346
261 1 1 0.0 79.319 78.072 31.761
262 1 1 0.0 78.464 79.012 32.390
263 1 1 0.0 78.395 79.071 33.805
264 1 1 0.0 77.329 79.762 34.434
265 1 1 0.0 77.247 79.801 35.849
266 1 1 0.0 76.040 80.198 36.478
267 1 1 0.0 75.950 80.215 37.893
268 1 1 0.0 74.682 80.291 38.522
269 1 1 0.0 80.293 75.274 23.428
270 1 1 0.0 80.076 76.526 24.057
271 1 1 0.0 80.049 76.613 25.472
272 1 1 0.0 79.520 77.768 26.101
273 1 1 0.0 79.472 77.845 27.516
274 1 1 0.0 78.666 78.828 28.145
275 1 1 0.0 78.600 78.890 29.560
276 1 1 0.0 77.571 79.636 30.189
277 1 1 0.0 77.491 79.679 31.604
278 1 1 0.0 76.306 80.137 32.233
279 1 1 0.0 76.217 80.159 33.648
280 1 1 0.0 74.955 80.301 34.277
281 1 1 0.0 74.864 80.299 35.692
282 1 1 0.0 73.606 80.114 36.321
283 1 1 0.0 73.519 80.090 37.736
284 1 1 0.0 72.350 79.591 38.365
285 1 1 0.0 80.300 75.001 19.182
286 1 1 0.0 80.147 76.263 19.811
287 1 1 0.0 80.125 76.351 21.226
288 1 1 0.0 79.656 77.532 21.855
289 1 1 0.0 79.612 77.611 23.270
290 1 1 0.0 78.858 78.634 23.899
291 1 1 0.0 78.795 78.700 25.314
292 1 1 0.0 77.806 79.497 25.943
293 1 1 0.0 77.728 79.545 27.358
294 1 1 0.0 76.568 80.063 27.987
295 1 1 0.0 76.481 80.090 29.402
296 1 1 0.0 75.227 80.296 30.031
297 1 1 0.0 75.136 80.299 31.446
298 1 1 0.0 73.871 80.179 32.075
299 1 1 0.0 73.783 80.159 33.490
300 1 1 0.0 72.590 79.721 34.119
301 1 1 0.0 72.509 79.679 35.535
302 1 1 0.0 71.467 78.952 36.163
303 1 1 0.0 71.400 78.890 37.579
304 1 1 0.0 70.578 77.922 38.207
305 1 1 0.0 78.981 78.500 21.069
306 1 1 0.0 78.034 79.347 21.698
307 1 1 0.0 77.959 79.398 23.113
308 1 1 0.0 76.827 79.976 23.742
309 1 1 0.0 76.741 80.007 25.157
310 1 1 0.0 75.500 80.277 25.786
311 1 1 0.0 75.409 80.285 27.201
312 1 1 0.0 74.139 80.230 27.830
313 1 1 0.0 74.050 80.215 29.245
314 1 1 0.0 72.836 79.839 29.874
315 1 1 0.0 72.753 79.801 31.289
316 1 1 0.0 71.675 79.128 31.918
317 1 1 0.0 71.605 79.071 33.333
318 1 1 0.0 70.734 78.146 33.962
319 1 1 0.0 70.681 78.072 35.377
320 1 1 0.0 70.074 76.955 36.006
321 1 1 0.0 70.041 76.871 37.421
322 1 1 0.0 69.738 75.636 38.050
323 1 1 0.0 76.997 79.910 20.912
324 1 1 0.0 75.771 80.244 21.541
325 1 1 0.0 75.680 80.257 22.956
326 1 1 0.0 74.410 80.268 23.585
327 1 1 0.0 74.320 80.257 25.000
328 1 1 0.0 73.088 79.944 25.629
329 1 1 0.0 73.003 79.910 27.044
330 1 1 0.0 71.892 79.294 27.673
331 1 1 0.0 71.819 79.240 29.088
332 1 1 0.0 70.901 78.361 29.717
333 1 1 0.0 70.844 78.290 31.132
334 1 1 0.0 70.181 77.206 31.761
335 1 1 0.0 70.144 77.123 33.176
336 1 1 0.0 69.778 75.906 33.805
337 1 1 0.0 69.763 75.817 35.220
338 1 1 0.0 69.720 74.547 35.849
339 1 1 0.0 69.728 74.456 37.264
340 1 1 0.0 70.010 73.217 37.893
341 1 1 0.0 74.591 80.285 20.755
342 1 1 0.0 73.345 80.036 21.384
343 1 1 0.0 73.259 80.007 22.799
344 1 1 0.0 72.117 79.448 23.428
345 1 1 0.0 72.041 79.398 24.843
346 1 1 0.0 71.080 78.567 25.472
347 1 1 0.0 71.019 78.500 26.887
348 1 1 0.0 70.301 77.452 27.516
349 1 1 0.0 70.259 77.371 28.931
350 1 1 0.0 69.832 76.174 29.560
351 1 1 0.0 69.812 76.085 30.975
352 1 1 0.0 69.703 74.819 31.604
353 1 1 0.0 69.707 74.728 33.019
354 1 1 0.0 69.924 73.476 33.648
355 1 1 0.0 69.951 73.389 35.063
356 1 1 0.0 70.480 72.234 35.692
357 1 1 0.0 70.528 72.157 37.107
358 1 1 0.0 71.334 71.174 37.736
359 1 1 0.0 72.272 79.545 20.597
360 1 1 0.0 71.269 78.765 21.226
361 1 1 0.0 71.205 78.700 22.641
362 1 1 0.0 70.433 77.690 23.270
363 1 1 0.0 70.388 77.611 24.685
364 1 1 0.0 69.899 76.438 25.314
365 1 1 0.0 69.875 76.351 26.730
366 1 1 0.0 69.701 75.092 27.358
367 1 1 0.0 69.700 75.001 28.774
368 1 1 0.0 69.853 73.739 29.402
369 1 1 0.0 69.875 73.651 30.818
370 1 1 0.0 70.344 72.470 31.446
371 1 1 0.0 70.388 72.391 32.862
372 1 1 0.0 71.142 71.368 33.490
373 1 1 0.0 71.205 71.302 34.906
374 1 1 0.0 72.194 70.505 35.535
375 1 1 0.0 72.272 70.457 36.950
376 1 1 0.0 73.432 69.939 37.579
377 1 1 0.0 70.528 77.845 20.440
378 1 1 0.0 69.980 76.699 21.069
379 1 1 0.0 69.951 76.613 22.484
380 1 1 0.0 69.713 75.365 23.113
381 1 1 0.0 69.707 75.274 24.528
382 1 1 0.0 69.794 74.006 25.157
383 1 1 0.0 69.812 73.917 26.572
384 1 1 0.0 70.219 72.713 27.201
385 1 1 0.0 70.259 72.631 28.616
386 1 1 0.0 70.960 71.571 29.245
387 1 1 0.0 71.019 71.502 30.660
388 1 1 0.0 71.966 70.655 31.289
389 1 1 0.0 72.041 70.604 32.704
390 1 1 0.0 73.173 70.026 33.333
391 1 1 0.0 73.259 69.995 34.748
392 1 1 0.0 74.500 69.725 35.377
393 1 1 0.0 74.591 69.717 36.792
394 1 1 0.0 75.861 69.772 37.421
395 1 1 0.0 69.728 75.546 20.283
396 1 1 0.0 69.750 74.275 20.912
397 1 1 0.0 69.763 74.185 22.327
398 1 1 0.0 70.108 72.962 22.956
399 1 1 0.0 70.144 72.879 24.371
400 1 1 0.0 70.788 71.784 25.000
401 1 1 0.0 70.844 71.712 26.415
402 1 1 0.0 71.747 70.817 27.044
403 1 1 0.0 71.819 70.762 28.459
404 1 1 0.0 72.919 70.127 29.088
405 1 1 0.0 73.003 70.092 30.503
406 1 1 0.0 74.229 69.758 31.132
407 1 1 0.0 74.320 69.745 32.547
408 1 1 0.0 75.590 69.734 33.176
409 1 1 0.0 75.680 69.745 34.591
410 1 1 0.0 76.912 70.058 35.220
411 1 1 0.0 76.997 70.092 36.635
412 1 1 0.0 78.108 70.708 37.264
413 1 1 0.0 70.041 73.131 20.126
414 1 1 0.0 70.628 72.005 20.755
415 1 1 0.0 70.681 71.930 22.170
416 1 1 0.0 71.536 70.990 22.799
417 1 1 0.0 71.605 70.931 24.214
418 1 1 0.0 72.671 70.240 24.843
419 1 1 0.0 72.753 70.201 26.258
420 1 1 0.0 73.960 69.804 26.887
421 1 1 0.0 74.050 69.787 28.302
422 1 1 0.0 75.318 69.711 28.931
423 1 1 0.0 75.409 69.717 30.346
424 1 1 0.0 76.655 69.966 30.975
425 1 1 0.0 76.741 69.995 32.390
426 1 1 0.0 77.883 70.554 33.019
427 1 1 0.0 77.959 70.604 34.434
428 1 1 0.0 78.920 71.435 35.063
429 1 1 0.0 78.981 71.502 36.478
430 1 1 0.0 79.699 72.550 37.107
431 1 1 0.0 71.400 71.112 19.969
432 1 1 0.0 72.429 70.366 20.597
433 1 1 0.0 72.509 70.323 22.013
434 1 1 0.0 73.694 69.865 22.641
435 1 1 0.0 73.783 69.843 24.057
436 1 1 0.0 75.045 69.701 24.685
437 1 1 0.0 75.136 69.703 26.101
438 1 1 0.0 76.394 69.888 26.730
439 1 1 0.0 76.481 69.912 28.145
440 1 1 0.0 77.650 70.411 28.774
441 1 1 0.0 77.728 70.457 30.189
442 1 1 0.0 78.731 71.237 30.818
443 1 1 0.0 78.795 71.302 32.233
444 1 1 0.0 79.567 72.312 32.862
445 1 1 0.0 79.612 72.391 34.277
446 1 1 0.0 80.101 73.564 34.906
447 1 1 0.0 80.125 73.651 36.321
448 1 1 0.0 80.299 74.910 36.950
449 1 1 0.0 73.519 69.912 19.811
450 1 1 0.0 74.773 69.706 20.440
451 1 1 0.0 74.864 69.703 21.855
452 1 1 0.0 76.129 69.823 22.484
453 1 1 0.0 76.217 69.843 23.899
454 1 1 0.0 77.410 70.281 24.528
455 1 1 0.0 77.491 70.323 25.943
456 1 1 0.0 78.533 71.050 26.572
457 1 1 0.0 78.600 71.112 27.987
458 1 1 0.0 79.422 72.080 28.616
459 1 1 0.0 79.472 72.157 30.031
460 1 1 0.0 80.020 73.303 30.660
461 1 1 0.0 80.049 73.389 32.075
462 1 1 0.0 80.287 74.637 32.704
463 1 1 0.0 80.293 74.728 34.119
464 1 1 0.0 80.206 75.996 34.748
465 1 1 0.0 75.950 69.787 19.654
466 1 1 0.0 77.164 70.163 20.283
467 1 1 0.0 77.247 70.201 21.698
468 1 1 0.0 78.325 70.874 22.327
469 1 1 0.0 78.395 70.931 23.742
470 1 1 0.0 79.266 71.856 24.371
471 1 1 0.0 79.319 71.930 25.786
472 1 1 0.0 79.926 73.047 26.415
473 1 1 0.0 79.959 73.131 27.830
474 1 1 0.0 80.262 74.366 28.459
475 1 1 0.0 80.272 74.456 29.874
476 1 1 0.0 80.250 75.727 30.503
477 1 1 0.0 78.181 70.762 19.497
478 1 1 0.0 79.099 71.641 20.126
479 1 1 0.0 79.156 71.712 21.541
480 1 1 0.0 79.819 72.796 22.170
481 1 1 0.0 79.856 72.879 23.585
482 1 1 0.0 80.222 74.096 24.214
483 1 1 0.0 80.237 74.185 25.629
484 1 1 0.0 80.280 75.455 26.258
485 1 1 0.0 79.741 72.631 19.340
486 1 1 0.0 80.168 73.828 19.969
487 1 1 0.0 80.188 73.917 21.384
488 1 1 0.0 80.297 75.183 22.013
489 1 1 0.0 80.188 76.085 55.346
490 1 1 0.0 79.781 77.289 55.975
491 1 1 0.0 79.741 77.371 57.390
492 1 1 0.0 79.040 78.431 58.019
493 1 1 0.0 80.237 75.817 51.101
494 1 1 0.0 79.892 77.040 51.729
495 1 1 0.0 79.856 77.123 53.145
496 1 1 0.0 79.212 78.218 53.773
497 1 1 0.0 79.156 78.290 55.189
498 1 1 0.0 78.253 79.185 55.817
499 1 1 0.0 78.181 79.240 57.233
500 1 1 0.0 77.081 79.875 57.862
501 1 1 0.0 80.272 75.546 46.855
502 1 1 0.0 79.990 76.785 47.484
503 1 1 0.0 79.959 76.871 48.899
504 1 1 0.0 79.372 77.997 49.528
505 1 1 0.0 79.319 78.072 50.943
506 1 1 0.0 78.464 79.012 51.572
507 1 1 0.0 78.395 79.071 52.987
508 1 1 0.0 77.329 79.762 53.616
509 1 1 0.0 77.247 79.801 55.031
510 1 1 0.0 76.040 80.198 55.660
511 1 1 0.0 75.950 80.215 57.075
512 1 1 0.0 74.682 80.291 57.704
513 1 1 0.0 80.293 75.274 42.610
514 1 1 0.0 80.076 76.526 43.239
515 1 1 0.0 80.049 76.613 44.654
516 1 1 0.0 79.520 77.768 45.283
517 1 1 0.0 79.472 77.845 46.698
518 1 1 0.0 78.666 78.828 47.327
519 1 1 0.0 78.600 78.890 48.742
520 1 1 0.0 77.571 79.636 49.371
521 1 1 0.0 77.491 79.679 50.786
522 1 1 0.0 76.306 80.137 51.415
523 1 1 0.0 76.217 80.159 52.830
524 1 1 0.0 74.955 80.301 53.459
525 1 1 0.0 74.864 80.299 54.874
526 1 1 0.0 73.606 80.114 55.503
527 1 1 0.0 73.519 80.090 56.918
528 1 1 0.0 72.350 79.591 57.547
529 1 1 0.0 80.300 75.001 38.365
530 1 1 0.0 80.147 76.263 38.994
531 1 1 0.0 80.125 76.351 40.409
532 1 1 0.0 79.656 77.532 41.038
533 1 1 0.0 79.612 77.611 42.453
534 1 1 0.0 78.858 78.634 43.082
535 1 1 0.0 78.795 78.700 44.497
536 1 1 0.0 77.806 79.497 45.126
537 1 1 0.0 77.728 79.545 46.541
538 1 1 0.0 76.568 80.063 47.170
539 1 1 0.0 76.481 80.090 48.585
540 1 1 0.0 75.227 80.296 49.214
541 1 1 0.0 75.136 80.299 50.629
542 1 1 0.0 73.871 80.179 51.258
543 1 1 0.0 73.783 80.159 52.673
544 1 1 0.0 72.590 79.721 53.302
545 1 1 0.0 72.509 79.679 54.717
546 1 1 0.0 71.467 78.952 55.346
547 1 1 0.0 71.400 78.890 56.761
548 1 1 0.0 70.578 77.922 57.390
549 1 1 0.0 78.981 78.500 40.251
550 1 1 0.0 78.034 79.347 40.880
551 1 1 0.0 77.959 79.398 42.296
552 1 1 0.0 76.827 79.976 42.924
553 1 1 0.0 76.741 80.007 44.340
554 1 1 0.0 75.500 80.277 44.968
555 1 1 0.0 75.409 80.285 46.384
556 1 1 0.0 74.139 80.230 47.012
557 1 1 0.0 74.050 80.215 48.428
558 1 1 0.0 72.836 79.839 49.056
559 1 1 0.0 72.753 79.801 50.472
560 1 1 0.0 71.675 79.128 51.101
561 1 1 0.0 71.605 79.071 52.516
562 1 1 0.0 70.734 78.146 53.145
563 1 1 0.0 70.681 78.072 54.560
564 1 1 0.0 70.074 76.955 55.189
565 1 1 0.0 70.041 76.871 56.604
566 1 1 0.0 69.738 75.636 57.233
567 1 1 0.0 76.997 79.910 40.094
568 1 1 0.0 75.771 80.244 40.723
569 1 1 0.0 75.680 80.257 42.138
570 1 1 0.0 74.410 80.268 42.767
571 1 1 0.0 74.320 80.257 44.182
572 1 1 0.0 73.088 79.944 44.811
573 1 1 0.0 73.003 79.910 46.226
574 1 1 0.0 71.892 79.294 46.855
575 1 1 0.0 71.819 79.240 48.270
576 1 1 0.0 70.901 78.361 48.899
577 1 1 0.0 70.844 78.290 50.314
578 1 1 0.0 70.181 77.206 50.943
579 1 1 0.0 70.144 77.123 52.358
580 1 1 0.0 69.778 75.906 52.987
581 1 1 0.0 69.763 75.817 54.402
582 1 1 0.0 69.720 74.547 55.031
583 1 1 0.0 69.728 74.456 56.446
584 1 1 0.0 70.010 73.217 57.075
585 1 1 0.0 74.591 80.285 39.937
586 1 1 0.0 73.345 80.036 40.566
587 1 1 0.0 73.259 80.007 41.981
588 1 1 0.0 72.117 79.448 42.610
589 1 1 0.0 72.041 79.398 44.025
590 1 1 0.0 71.080 78.567 44.654
591 1 1 0.0 71.019 78.500 46.069
592 1 1 0.0 70.301 77.452 46.698
593 1 1 0.0 70.259 77.371 48.113
594 1 1 0.0 69.832 76.174 48.742
595 1 1 0.0 69.812 76.085 50.157
596 1 1 0.0 69.703 74.819 50.786
597 1 1 0.0 69.707 74.728 52.201
598 1 1 0.0 69.924 73.476 52.830
599 1 1 0.0 69.951 73.389 54.245
600 1 1 0.0 70.480 72.234 54.874
601 1 1 0.0 70.528 72.157 56.289
602 1 1 0.0 71.334 71.174 56.918
603 1 1 0.0 72.272 79.545 39.780
604 1 1 0.0 71.269 78.765 40.409
605 1 1 0.0 71.205 78.700 41.824
606 1 1 0.0 70.433 77.690 42.453
607 1 1 0.0 70.388 77.611 43.868
608 1 1 0.0 69.899 76.438 44.497
609 1 1 0.0 69.875 76.351 45.912
610 1 1 0.0 69.701 75.092 46.541
611 1 1 0.0 69.700 75.001 47.956
612 1 1 0.0 69.853 73.739 48.585
613 1 1 0.0 69.875 73.651 50.000
614 1 1 0.0 70.344 72.470 50.629
615 1 1 0.0 70.388 72.391 52.044
616 1 1 0.0 71.142 71.368 52.673
617 1 1 0.0 71.205 71.302 54.088
618 1 1 0.0 72.194 70.505 54.717
619 1 1 0.0 72.272 70.457 56.132
620 1 1 0.0 73.432 69.939 56.761
621 1 1 0.0 70.528 77.845 39.623
622 1 1 0.0 69.980 76.699 40.251
623 1 1 0.0 69.951 76.613 41.667
624 1 1 0.0 69.713 75.365 42.296
625 1 1 0.0 69.707 75.274 43.711
626 1 1 0.0 69.794 74.006 44.340
627 1 1 0.0 69.812 73.917 45.755
628 1 1 0.0 70.219 72.713 46.384
629 1 1 0.0 70.259 72.631 47.799
630 1 1 0.0 70.960 71.571 48.428
631 1 1 0.0 71.019 71.502 49.843
632 1 1 0.0 71.966 70.655 50.472
633 1 1 0.0 72.041 70.604 51.887
634 1 1 0.0 73.173 70.026 52.516
635 1 1 0.0 73.259 69.995 53.931
636 1 1 0.0 74.500 69.725 54.560
637 1 1 0.0 74.591 69.717 55.975
638 1 1 0.0 75.861 69.772 56.604
639 1 1 0.0 69.728 75.546 39.465
640 1 1 0.0 69.750 74.275 40.094
641 1 1 0.0 69.763 74.185 41.509
642 1 1 0.0 70.108 72.962 42.138
643 1 1 0.0 70.144 72.879 43.553
644 1 1 0.0 70.788 71.784 44.182
645 1 1 0.0 70.844 71.712 45.597
646 1 1 0.0 71.747 70.817 46.226
647 1 1 0.0 71.819 70.762 47.641
648 1 1 0.0 72.919 70.127 48.270
649 1 1 0.0 73.003 70.092 49.685
650 1 1 0.0 74.229 69.758 50.314
651 1 1 0.0 74.320 69.745 51.729
652 1 1 0.0 75.590 69.734 52.358
653 1 1 0.0 75.680 69.745 53.773
654 1 1 0.0 76.912 70.058 54.402
655 1 1 0.0 76.997 70.092 55.817
656 1 1 0.0 78.108 70.708 56.446
657 1 1 0.0 70.041 73.131 39.308
658 1 1 0.0 70.628 72.005 39.937
659 1 1 0.0 70.681 71.930 41.352
660 1 1 0.0 71.536 70.990 41.981
661 1 1 0.0 71.605 70.931 43.396
662 1 1 0.0 72.671 70.240 44.025
663 1 1 0.0 72.753 70.201 45.440
664 1 1 0.0 73.960 69.804 46.069
665 1 1 0.0 74.050 69.787 47.484
666 1 1 0.0 75.318 69.711 48.113
667 1 1 0.0 75.409 69.717 49.528
668 1 1 0.0 76.655 69.966 50.157
669 1 1 0.0 76.741 69.995 51.572
670 1 1 0.0 77.883 70.554 52.201
671 1 1 0.0 77.959 70.604 53.616
672 1 1 0.0 78.920 71.435 54.245
673 1 1 0.0 78.981 71.502 55.660
674 1 1 0.0 79.699 72.550 56.289
675 1 1 0.0 71.400 71.112 39.151
676 1 1 0.0 72.429 70.366 39.780
677 1 1 0.0 72.509 70.323 41.195
678 1 1 0.0 73.694 69.865 41.824
679 1 1 0.0 73.783 69.843 43.239
680 1 1 0.0 75.045 69.701 43.868
681 1 1 0.0 75.136 69.703 45.283
682 1 1 0.0 76.394 69.888 45.912
683 1 1 0.0 76.481 69.912 47.327
684 1 1 0.0 77.650 70.411 47.956
685 1 1 0.0 77.728 70.457 49.371
686 1 1 0.0 78.731 71.237 50.000
687 1 1 0.0 78.795 71.302 51.415
688 1 1 0.0 79.567 72.312 52.044
689 1 1 0.0 79.612 72.391 53.459
690 1 1 0.0 80.101 73.564 54.088
691 1 1 0.0 80.125 73.651 55.503
692 1 1 0.0 80.299 74.910 56.132
693 1 1 0.0 73.519 69.912 38.994
694 1 1 0.0 74.773 69.706 39.623
695 1 1 0.0 74.864 69.703 41.038
696 1 1 0.0 76.129 69.823 41.667
697 1 1 0.0 76.217 69.843 43.082
698 1 1 0.0 77.410 70.281 43.711
699 1 1 0.0 77.491 70.323 45.126
700 1 1 0.0 78.533 71.050 45.755
701 1 1 0.0 78.600 71.112 47.170
702 1 1 0.0 79.422 72.080 47.799
703 1 1 0.0 79.472 72.157 49.214
704 1 1 0.0 80.020 73.303 49.843
705 1 1 0.0 80.049 73.389 51.258
706 1 1 0.0 80.287 74.637 51.887
707 1 1 0.0 80.293 74.728 53.302
708 1 1 0.0 80.206 75.996 53.931
709 1 1 0.0 75.950 69.787 38.836
710 1 1 0.0 77.164 70.163 39.465
711 1 1 0.0 77.247 70.201 40.880
712 1 1 0.0 78.325 70.874 41.509
713 1 1 0.0 78.395 70.931 42.924
714 1 1 0.0 79.266 71.856 43.553
715 1 1 0.0 79.319 71.930 44.968
716 1 1 0.0 79.926 73.047 45.597
717 1 1 0.0 79.959 73.131 47.012
718 1 1 0.0 80.262 74.366 47.641
719 1 1 0.0 80.272 74.456 49.056
720 1 1 0.0 80.250 75.727 49.685
721 1 1 0.0 78.181 70.762 38.679
722 1 1 0.0 79.099 71.641 39.308
723 1 1 0.0 79.156 71.712 40.723
724 1 1 0.0 79.819 72.796 41.352
725 1 1 0.0 79.856 72.879 42.767
726 1 1 0.0 80.222 74.096 43.396
727 1 1 0.0 80.237 74.185 44.811
728 1 1 0.0 80.280 75.455 45.440
729 1 1 0.0 79.741 72.631 38.522
730 1 1 0.0 80.168 73.828 39.151
731 1 1 0.0 80.188 73.917 40.566
732 1 1 0.0 80.297 75.183 41.195
733 1 1 0.0 80.188 76.085 74.528
734 1 1 0.0 79.781 77.289 75.157
735 1 1 0.0 79.741 77.371 76.572
736 1 1 0.0 79.040 78.431 77.201
737 1 1 0.0 80.237 75.817 70.283
738 1 1 0.0 79.892 77.040 70.912
739 1 1 0.0 79.856 77.123 72.327
740 1 1 0.0 79.212 78.218 72.956
741 1 1 0.0 79.156 78.290 74.371
742 1 1 0.0 78.253 79.185 75.000
743 1 1 0.0 78.181 79.240 76.415
744 1 1 0.0 77.081 79.875 77.044
745 1 1 0.0 80.272 75.546 66.038
746 1 1 0.0 79.990 76.785 66.667
747 1 1 0.0 79.959 76.871 68.082
748 1 1 0.0 79.372 77.997 68.711
749 1 1 0.0 79.319 78.072 70.126
750 1 1 0.0 78.464 79.012 70.755
751 1 1 0.0 78.395 79.071 72.170
752 1 1 0.0 77.329 79.762 72.799
753 1 1 0.0 77.247 79.801 74.214
754 1 1 0.0 76.040 80.198 74.843
755 1 1 0.0 75.950 80.215 76.258
756 1 1 0.0 74.682 80.291 76.887
757 1 1 0.0 80.293 75.274 61.792
758 1 1 0.0 80.076 76.526 62.421
759 1 1 0.0 80.049 76.613 63.836
760 1 1 0.0 79.520 77.768 64.465
761 1 1 0.0 79.472 77.845 65.880
762 1 1 0.0 78.666 78.828 66.509
763 1 1 0.0 78.600 78.890 67.924
764 1 1 0.0 77.571 79.636 68.553
765 1 1 0.0 77.491 79.679 69.968
766 1 1 0.0 76.306 80.137 70.597
767 1 1 0.0 76.217 80.159 72.012
768 1 1 0.0 74.955 80.301 72.641
769 1 1 0.0 74.864 80.299 74.056
770 1 1 0.0 73.606 80.114 74.685
771 1 1 0.0 73.519 80.090 76.100
772 1 1 0.0 72.350 79.591 76.729
773 1 1 0.0 80.300 75.001 57.547
774 1 1 0.0 80.147 76.263 58.176
775 1 1 0.0 80.125 76.351 59.591
776 1 1 0.0 79.656 77.532 60.220
777 1 1 0.0 79.612 77.611 61.635
778 1 1 0.0 78.858 78.634 62.264
779 1 1 0.0 78.795 78.700 63.679
780 1 1 0.0 77.806 79.497 64.308
781 1 1 0.0 77.728 79.545 65.723
782 1 1 0.0 76.568 80.063 66.352
783 1 1 0.0 76.481 80.090 67.767
784 1 1 0.0 75.227 80.296 68.396
785 1 1 0.0 75.136 80.299 69.811
786 1 1 0.0 73.871 80.179 70.440
787 1 1 0.0 73.783 80.159 71.855
788 1 1 0.0 72.590 79.721 72.484
789 1 1 0.0 72.509 79.679 73.899
790 1 1 0.0 71.467 78.952 74.528
791 1 1 0.0 71.400 78.890 75.943
792 1 1 0.0 70.578 77.922 76.572
793 1 1 0.0 78.981 78.500 59.434
794 1 1 0.0 78.034 79.347 60.063
795 1 1 0.0 77.959 79.398 61.478
796 1 1 0.0 76.827 79.976 62.107
797 1 1 0.0 76.741 80.007 63.522
798 1 1 0.0 75.500 80.277 64.151
799 1 1 0.0 75.409 80.285 65.566
800 1 1 0.0 74.139 80.230 66.195
801 1 1 0.0 74.050 80.215 67.610
802 1 1 0.0 72.836 79.839 68.239
803 1 1 0.0 72.753 79.801 69.654
804 1 1 0.0 71.675 79.128 70.283
805 1 1 0.0 71.605 79.071 71.698
806 1 1 0.0 70.734 78.146 72.327
807 1 1 0.0 70.681 78.072 73.742
808 1 1 0.0 70.074 76.955 74.371
809 1 1 0.0 70.041 76.871 75.786
810 1 1 0.0 69.738 75.636 76.415
811 1 1 0.0 76.997 79.910 59.277
812 1 1 0.0 75.771 80.244 59.906
813 1 1 0.0 75.680 80.257 61.321
814 1 1 0.0 74.410 80.268 61.950
815 1 1 0.0 74.320 80.257 63.365
816 1 1 0.0 73.088 79.944 63.994
817 1 1 0.0 73.003 79.910 65.409
818 1 1 0.0 71.892 79.294 66.038
819 1 1 0.0 71.819 79.240 67.453
820 1 1 0.0 70.901 78.361 68.082
821 1 1 0.0 70.844 78.290 69.497
822 1 1 0.0 70.181 77.206 70.126
823 1 1 0.0 70.144 77.123 71.541
824 1 1 0.0 69.778 75.906 72.170
825 1 1 0.0 69.763 75.817 73.585
826 1 1 0.0 69.720 74.547 74.214
827 1 1 0.0 69.728 74.456 75.629
828 1 1 0.0 70.010 73.217 76.258
829 1 1 0.0 74.591 80.285 59.119
830 1 1 0.0 73.345 80.036 59.748
831 1 1 0.0 73.259 80.007 61.163
832 1 1 0.0 72.117 79.448 61.792
833 1 1 0.0 72.041 79.398 63.207
834 1 1 0.0 71.080 78.567 63.836
835 1 1 0.0 71.019 78.500 65.251
836 1 1 0.0 70.301 77.452 65.880
837 1 1 0.0 70.259 77.371 67.295
838 1 1 0.0 69.832 76.174 67.924
839 1 1 0.0 69.812 76.085 69.339
840 1 1 0.0 69.703 74.819 69.968
841 1 1 0.0 69.707 74.728 71.383
842 1 1 0.0 69.924 73.476 72.012
843 1 1 0.0 69.951 73.389 73.428
844 1 1 0.0 70.480 72.234 74.056
845 1 1 0.0 70.528 72.157 75.472
846 1 1 0.0 71.334 71.174 76.100
847 1 1 0.0 72.272 79.545 58.962
848 1 1 0.0 71.269 78.765 59.591
849 1 1 0.0 71.205 78.700 61.006
850 1 1 0.0 70.433 77.690 61.635
851 1 1 0.0 70.388 77.611 63.050
852 1 1 0.0 69.899 76.438 63.679
853 1 1 0.0 69.875 76.351 65.094
854 1 1 0.0 69.701 75.092 65.723
855 1 1 0.0 69.700 75.001 67.138
856 1 1 0.0 69.853 73.739 67.767
857 1 1 0.0 69.875 73.651 69.182
858 1 1 0.0 70.344 72.470 69.811
859 1 1 0.0 70.388 72.391 71.226
860 1 1 0.0 71.142 71.368 71.855
861 1 1 0.0 71.205 71.302 73.270
862 1 1 0.0 72.194 70.505 73.899
863 1 1 0.0 72.272 70.457 75.314
864 1 1 0.0 73.432 69.939 75.943
865 1 1 0.0 70.528 77.845 58.805
866 1 1 0.0 69.980 76.699 59.434
867 1 1 0.0 69.951 76.613 60.849
868 1 1 0.0 69.713 75.365 61.478
869 1 1 0.0 69.707 75.274 62.893
870 1 1 0.0 69.794 74.006 63.522
871 1 1 0.0 69.812 73.917 64.937
872 1 1 0.0 70.219 72.713 65.566
873 1 1 0.0 70.259 72.631 66.981
874 1 1 0.0 70.960 71.571 67.610
875 1 1 0.0 71.019 71.502 69.025
876 1 1 0.0 71.966 70.655 69.654
877 1 1 0.0 72.041 70.604 71.069
878 1 1 0.0 73.173 70.026 71.698
879 1 1 0.0 73.259 69.995 73.113
880 1 1 0.0 74.500 69.725 73.742
881 1 1 0.0 74.591 69.717 75.157
882 1 1 0.0 75.861 69.772 75.786
883 1 1 0.0 69.728 75.546 58.648
884 1 1 0.0 69.750 74.275 59.277
885 1 1 0.0 69.763 74.185 60.692
886 1 1 0.0 70.108 72.962 61.321
887 1 1 0.0 70.144 72.879 62.736
888 1 1 0.0 70.788 71.784 63.365
889 1 1 0.0 70.844 71.712 64.780
890 1 1 0.0 71.747 70.817 65.409
891 1 1 0.0 71.819 70.762 66.824
892 1 1 0.0 72.919 70.127 67.453
893 1 1 0.0 73.003 70.092 68.868
894 1 1 0.0 74.229 69.758 69.497
895 1 1 0.0 74.320 69.745 70.912
896 1 1 0.0 75.590 69.734 71.541
897 1 1 0.0 75.680 69.745 72.956
898 1 1 0.0 76.912 70.058 73.585
899 1 1 0.0 76.997 70.092 75.000
900 1 1 0.0 78.108 70.708 75.629
901 1 1 0.0 70.041 73.131 58.490
902 1 1 0.0 70.628 72.005 59.119
903 1 1 0.0 70.681 71.930 60.534
904 1 1 0.0 71.536 70.990 61.163
905 1 1 0.0 71.605 70.931 62.578
906 1 1 0.0 72.671 70.240 63.207
907 1 1 0.0 72.753 70.201 64.623
908 1 1 0.0 73.960 69.804 65.251