ITEM: TIMESTEP
2333679
ITEM: NUMBER OF ATOMS
5783
ITEM: BOX BOUNDS pp pp pp
0.0000000000000000e+00 1.5000000000000000e+02
0.0000000000000000e+00 1.5000000000000000e+02
0.0000000000000000e+00 2.5000000000000000e+02
ITEM: ATOMS id element type x y z 
126 C 1 71.647 68.574 5.895 
127 C 1 72.066 68.372 7.235 
128 C 1 73.387 67.934 7.503 
138 C 1 72.066 68.372 3.484 
139 C 1 72.497 68.198 4.824 
140 C 1 73.843 67.845 5.092 
141 C 1 74.304 67.785 6.431 
148 C 1 72.497 68.198 1.072 
149 C 1 72.938 68.051 2.412 
150 C 1 74.304 67.785 2.68 
151 C 1 74.768 67.756 4.02 
161 C 1 73.387 67.934 0 
162 C 1 74.768 67.756 0.268 
4429 C 1 71.647 68.574 7.258 
4430 C 1 72.938 68.051 7.526 
4438 C 1 71.647 68.574 3.506 
4439 C 1 72.066 68.372 4.846 
4440 C 1 73.387 67.934 5.114 
4441 C 1 73.843 67.845 6.454 
4450 C 1 72.066 68.372 1.094 
4451 C 1 72.497 68.198 2.434 
4452 C 1 73.843 67.845 2.702 
4453 C 1 74.304 67.785 4.042 
4461 C 1 72.938 68.051 0.022 
4462 C 1 74.304 67.785 0.29 
4463 C 1 74.768 67.756 1.63 
142 C 1 75.696 67.785 6.699 
152 C 1 76.157 67.845 4.288 
153 C 1 76.613 67.934 5.628 
154 C 1 77.934 68.372 5.895 
155 C 1 78.353 68.574 7.235 
163 C 1 75.232 67.756 1.608 
164 C 1 76.613 67.934 1.876 
165 C 1 77.062 68.051 3.216 
166 C 1 78.353 68.574 3.484 
175 C 1 77.503 68.198 0.804 
4442 C 1 75.232 67.756 6.722 
4454 C 1 75.696 67.785 4.31 
4455 C 1 76.157 67.845 5.65 
4456 C 1 77.503 68.198 5.918 
4457 C 1 77.934 68.372 7.258 
4464 C 1 76.157 67.845 1.898 
4465 C 1 76.613 67.934 3.238 
4466 C 1 77.934 68.372 3.506 
4467 C 1 78.353 68.574 4.846 
4477 C 1 77.062 68.051 0.826 
4478 C 1 78.353 68.574 1.094 
98 C 1 67.886 73.614 5.895 
99 C 1 67.989 73.161 7.235 
100 C 1 68.47 71.855 7.503 
109 C 1 67.767 74.536 3.216 
110 C 1 67.989 73.161 3.484 
111 C 1 68.121 72.716 4.824 
112 C 1 68.685 71.443 5.092 
119 C 1 67.811 74.073 0.804 
120 C 1 68.121 72.716 1.072 
121 C 1 68.282 72.28 2.412 
133 C 1 68.47 71.855 0 
4400 C 1 67.811 74.073 5.918 
4401 C 1 67.886 73.614 7.258 
4402 C 1 68.282 72.28 7.526 
4410 C 1 67.886 73.614 3.506 
4411 C 1 67.989 73.161 4.846 
4412 C 1 68.47 71.855 5.114 
4413 C 1 68.685 71.443 6.454 
4421 C 1 67.767 74.536 0.826 
4422 C 1 67.989 73.161 1.094 
4423 C 1 68.121 72.716 2.434 
4424 C 1 68.685 71.443 2.702 
4433 C 1 68.282 72.28 0.022 
113 C 1 68.925 71.046 6.431 
114 C 1 69.793 69.958 6.699 
122 C 1 68.925 71.046 2.68 
123 C 1 69.191 70.665 4.02 
124 C 1 70.127 69.634 4.288 
125 C 1 70.481 69.333 5.628 
134 C 1 69.191 70.665 0.268 
135 C 1 69.481 70.302 1.608 
136 C 1 70.481 69.333 1.876 
137 C 1 70.853 69.055 3.216 
147 C 1 71.243 68.802 0.804 
4414 C 1 69.481 70.302 6.722 
4425 C 1 68.925 71.046 4.042 
4426 C 1 69.793 69.958 4.31 
4427 C 1 70.127 69.634 5.65 
4428 C 1 71.243 68.802 5.918 
4434 C 1 68.925 71.046 0.29 
4435 C 1 69.191 70.665 1.63 
4436 C 1 70.127 69.634 1.898 
4437 C 1 70.481 69.333 3.238 
4449 C 1 70.853 69.055 0.826 
4613 H 2 73.5008 71.1077 7.0258 
5713 H 2 71.9732 73.1003 3.87392 
5714 H 2 70.6383 73.6221 4.36152 
5712 O 3 71.3549 73.822 3.75917 
5039 H 2 73.7537 71.4638 3.71891 
5037 O 3 73.0975 71.7645 4.34759 
5298 O 3 71.2446 74.8578 6.68645 
5646 O 3 71.7746 73.7831 0.667919 
5370 O 3 73.4836 71.1538 0.427221 
4612 H 2 73.8809 72.3457 7.80984 
4611 O 3 74.1376 71.822 7.05086 
5371 H 2 72.6677 71.6242 0.256153 
5038 H 2 73.5514 71.7571 5.19029 
4585 H 2 74.8213 74.3843 3.06115 
5101 H 2 74.5198 72.802 1.22106 
5100 O 3 74.8858 73.5284 0.716486 
5102 H 2 74.1268 73.9403 0.303615 
5648 H 2 71.6829 73.4489 1.56022 
5647 H 2 71.5132 74.7019 0.727699 
4586 H 2 75.4639 73.6491 4.21811 
4584 O 3 75.3097 74.528 3.87178 
5446 H 2 78.6205 73.5881 6.98031 
5445 O 3 78.9433 73.6606 6.08209 
4529 H 2 76.3177 70.8904 2.01357 
156 C 1 79.519 69.333 7.503 
167 C 1 78.757 68.802 4.824 
168 C 1 79.873 69.634 5.092 
169 C 1 80.207 69.958 6.431 
170 C 1 81.075 71.046 6.699 
176 C 1 78.757 68.802 1.072 
177 C 1 79.147 69.055 2.412 
178 C 1 80.207 69.958 2.68 
179 C 1 80.519 70.302 4.02 
185 C 1 79.519 69.333 0 
186 C 1 80.519 70.302 0.268 
187 C 1 80.809 70.665 1.608 
4458 C 1 79.147 69.055 7.526 
4468 C 1 79.519 69.333 5.114 
4469 C 1 79.873 69.634 6.454 
4470 C 1 80.809 70.665 6.722 
4479 C 1 78.757 68.802 2.434 
4480 C 1 79.873 69.634 2.702 
4481 C 1 80.207 69.958 4.042 
4482 C 1 81.075 71.046 4.31 
4489 C 1 79.147 69.055 0.022 
4490 C 1 80.207 69.958 0.29 
4491 C 1 80.519 70.302 1.63 
4527 O 3 75.9751 71.4561 2.70559 
4528 H 2 76.74 71.6734 3.23844 
5447 H 2 78.2378 73.3016 5.54387 
4842 O 3 78.2277 72.4141 3.82448 
4844 H 2 79.0796 72.4509 4.25939 
5330 H 2 76.5654 74.8891 2.74449 
5329 H 2 77.4306 74.7747 1.50742 
4843 H 2 78.2798 73.0788 3.13776 
5194 H 2 76.5149 73.3809 0.0693752 
180 C 1 81.315 71.443 4.288 
181 C 1 81.53 71.855 5.628 
182 C 1 82.011 73.161 5.895 
183 C 1 82.114 73.614 7.235 
188 C 1 81.53 71.855 1.876 
189 C 1 81.718 72.28 3.216 
190 C 1 82.114 73.614 3.484 
191 C 1 82.189 74.073 4.824 
193 C 1 81.879 72.716 0.804 
194 C 1 82.189 74.073 1.072 
195 C 1 82.233 74.536 2.412 
4483 C 1 81.315 71.443 5.65 
4484 C 1 81.879 72.716 5.918 
4485 C 1 82.011 73.161 7.258 
4486 C 1 82.233 74.536 7.526 
4492 C 1 81.315 71.443 1.898 
4493 C 1 81.53 71.855 3.238 
4494 C 1 82.011 73.161 3.506 
4495 C 1 82.114 73.614 4.846 
4501 C 1 81.718 72.28 0.826 
4502 C 1 82.114 73.614 1.094 
4503 C 1 82.189 74.073 2.434 
4507 C 1 82.233 74.536 0.022 
72 C 1 68.47 78.145 7.503 
84 C 1 68.282 77.72 5.092 
85 C 1 68.121 77.284 6.431 
86 C 1 67.811 75.927 6.699 
93 C 1 68.685 78.557 2.412 
94 C 1 68.121 77.284 2.68 
95 C 1 67.989 76.839 4.02 
96 C 1 67.767 75.464 4.288 
97 C 1 67.752 75 5.628 
105 C 1 68.47 78.145 0 
106 C 1 67.989 76.839 0.268 
107 C 1 67.886 76.386 1.608 
108 C 1 67.752 75 1.876 
4374 C 1 68.685 78.557 7.526 
4384 C 1 68.47 78.145 5.114 
4385 C 1 68.282 77.72 6.454 
4386 C 1 67.886 76.386 6.722 
4396 C 1 68.282 77.72 2.702 
4397 C 1 68.121 77.284 4.042 
4398 C 1 67.811 75.927 4.31 
4399 C 1 67.767 75.464 5.65 
4405 C 1 68.685 78.557 0.022 
4406 C 1 68.121 77.284 0.29 
4407 C 1 67.989 76.839 1.63 
4408 C 1 67.767 75.464 1.898 
4409 C 1 67.752 75 3.238 
5093 H 2 73.0751 75.5652 6.13867 
5300 H 2 70.867 75.5002 6.08562 
4709 H 2 71.6837 75.7347 4.00198 
4708 H 2 71.748 77.1272 3.41159 
4707 O 3 71.6217 76.6603 4.23761 
4645 H 2 73.1909 77.7755 4.59279 
4644 O 3 73.8448 78.3974 4.91209 
4646 H 2 73.7161 78.4152 5.86044 
58 C 1 71.243 81.198 6.699 
68 C 1 70.853 80.945 4.288 
69 C 1 70.481 80.667 5.628 
70 C 1 69.481 79.698 5.895 
71 C 1 69.191 79.335 7.235 
80 C 1 70.481 80.667 1.876 
81 C 1 70.127 80.366 3.216 
82 C 1 69.191 79.335 3.484 
83 C 1 68.925 78.954 4.824 
91 C 1 69.793 80.042 0.804 
92 C 1 68.925 78.954 1.072 
4370 C 1 71.243 81.198 4.31 
4371 C 1 70.853 80.945 5.65 
4372 C 1 69.793 80.042 5.918 
4373 C 1 69.481 79.698 7.258 
4380 C 1 70.853 80.945 1.898 
4381 C 1 70.481 80.667 3.238 
4382 C 1 69.481 79.698 3.506 
4383 C 1 69.191 79.335 4.846 
4393 C 1 70.127 80.366 0.826 
4394 C 1 69.191 79.335 1.094 
4395 C 1 68.925 78.954 2.434 
5733 O 3 72.0722 76.7215 0.459633 
5734 H 2 72.4732 77.4004 1.00232 
5360 H 2 73.6132 78.5073 3.02391 
5358 O 3 73.4483 78.305 2.10297 
5359 H 2 74.2158 78.6435 1.6418 
5092 H 2 74.3383 75.5336 5.30487 
5091 O 3 74.0274 75.6358 6.2044 
5299 H 2 71.4004 75.3472 7.49416 
5479 H 2 76.1292 78.3444 1.16418 
4535 H 2 78.7818 75.8536 4.17988 
4534 H 2 79.0337 75.3664 5.59093 
4533 O 3 78.8459 76.1572 5.0854 
5367 O 3 77.1352 77.1552 7.02497 
5369 H 2 76.3162 76.7975 6.6822 
5622 O 3 76.7919 79.0172 4.99998 
5666 H 2 77.4422 77.0057 2.23356 
5664 O 3 77.4721 77.9594 2.3095 
5665 H 2 77.1535 78.1398 3.19392 
5624 H 2 76.7949 78.8461 5.94176 
5623 H 2 75.8914 79.2779 4.80633 
14 C 1 80.809 79.335 5.895 
15 C 1 80.519 79.698 7.235 
16 C 1 79.519 80.667 7.503 
26 C 1 80.519 79.698 3.484 
27 C 1 80.207 80.042 4.824 
28 C 1 79.147 80.945 5.092 
29 C 1 78.757 81.198 6.431 
35 C 1 81.075 78.954 0.804 
36 C 1 80.207 80.042 1.072 
37 C 1 79.873 80.366 2.412 
38 C 1 78.757 81.198 2.68 
49 C 1 79.519 80.667 0 
4320 C 1 81.075 78.954 5.918 
4321 C 1 80.809 79.335 7.258 
4322 C 1 79.873 80.366 7.526 
4326 C 1 80.809 79.335 3.506 
4327 C 1 80.519 79.698 4.846 
4328 C 1 79.519 80.667 5.114 
4329 C 1 79.147 80.945 6.454 
4338 C 1 80.519 79.698 1.094 
4339 C 1 80.207 80.042 2.434 
4340 C 1 79.147 80.945 2.702 
4341 C 1 78.757 81.198 4.042 
4349 C 1 79.873 80.366 0.022 
4350 C 1 78.757 81.198 0.29 
5368 H 2 77.7318 77.1485 6.27649 
5328 O 3 77.3695 75.226 2.34934 
5480 H 2 75.3744 77.2282 0.474062 
5478 O 3 75.5954 78.156 0.392298 
5 C 1 82.189 75.927 6.431 
6 C 1 81.879 77.284 6.699 
11 C 1 82.114 76.386 4.02 
12 C 1 81.718 77.72 4.288 
13 C 1 81.53 78.145 5.628 
21 C 1 82.248 75 0 
22 C 1 82.114 76.386 0.268 
23 C 1 82.011 76.839 1.608 
24 C 1 81.53 78.145 1.876 
25 C 1 81.315 78.557 3.216 
184 C 1 82.248 75 7.503 
192 C 1 82.233 75.464 5.092 
196 C 1 82.189 75.927 2.68 
4313 C 1 82.233 75.464 6.454 
4314 C 1 82.011 76.839 6.722 
4317 C 1 82.189 75.927 4.042 
4318 C 1 81.879 77.284 4.31 
4319 C 1 81.718 77.72 5.65 
4323 C 1 82.114 76.386 1.63 
4324 C 1 81.718 77.72 1.898 
4325 C 1 81.53 78.145 3.238 
4337 C 1 81.315 78.557 0.826 
4496 C 1 82.248 75 5.114 
4504 C 1 82.233 75.464 2.702 
4508 C 1 82.189 75.927 0.29 
43 C 1 74.768 82.244 7.235 
44 C 1 73.387 82.066 7.503 
54 C 1 74.768 82.244 3.484 
55 C 1 74.304 82.215 4.824 
56 C 1 72.938 81.949 5.092 
57 C 1 72.497 81.802 6.431 
64 C 1 74.304 82.215 1.072 
65 C 1 73.843 82.155 2.412 
66 C 1 72.497 81.802 2.68 
67 C 1 72.066 81.628 4.02 
77 C 1 73.387 82.066 0 
78 C 1 72.066 81.628 0.268 
79 C 1 71.647 81.426 1.608 
4346 C 1 73.843 82.155 7.526 
4355 C 1 74.768 82.244 4.846 
4356 C 1 73.387 82.066 5.114 
4357 C 1 72.938 81.949 6.454 
4358 C 1 71.647 81.426 6.722 
4366 C 1 74.768 82.244 1.094 
4367 C 1 74.304 82.215 2.434 
4368 C 1 72.938 81.949 2.702 
4369 C 1 72.497 81.802 4.042 
4377 C 1 73.843 82.155 0.022 
4378 C 1 72.497 81.802 0.29 
4379 C 1 72.066 81.628 1.63 
30 C 1 77.503 81.802 6.699 
39 C 1 78.353 81.426 4.02 
40 C 1 77.062 81.949 4.288 
41 C 1 76.613 82.066 5.628 
42 C 1 75.232 82.244 5.895 
50 C 1 78.353 81.426 0.268 
51 C 1 77.934 81.628 1.608 
52 C 1 76.613 82.066 1.876 
53 C 1 76.157 82.155 3.216 
63 C 1 75.696 82.215 0.804 
4330 C 1 77.934 81.628 6.722 
4342 C 1 77.503 81.802 4.31 
4343 C 1 77.062 81.949 5.65 
4344 C 1 75.696 82.215 5.918 
4345 C 1 75.232 82.244 7.258 
4351 C 1 78.353 81.426 1.63 
4352 C 1 77.062 81.949 1.898 
4353 C 1 76.613 82.066 3.238 
4354 C 1 75.232 82.244 3.506 
4365 C 1 76.157 82.155 0.826 
117 C 1 71.647 68.574 9.647 
118 C 1 72.938 68.051 9.915 
129 C 1 73.843 67.845 8.843 
334 C 1 72.066 68.372 14.739 
344 C 1 72.497 68.198 12.327 
345 C 1 72.938 68.051 13.667 
346 C 1 74.304 67.785 13.935 
347 C 1 74.768 67.756 15.275 
357 C 1 73.387 67.934 11.255 
358 C 1 74.768 67.756 11.523 
130 C 1 75.232 67.756 9.111 
131 C 1 75.696 67.785 10.451 
132 C 1 77.062 68.051 10.719 
143 C 1 76.157 67.845 8.039 
144 C 1 77.503 68.198 8.307 
145 C 1 77.934 68.372 9.647 
348 C 1 76.157 67.845 15.543 
359 C 1 75.232 67.756 12.863 
360 C 1 76.613 67.934 13.131 
361 C 1 77.062 68.051 14.471 
362 C 1 78.353 68.574 14.739 
371 C 1 77.503 68.198 12.059 
4443 C 1 75.696 67.785 8.062 
4444 C 1 77.062 68.051 8.33 
76 C 1 67.767 74.536 10.719 
88 C 1 67.811 74.073 8.307 
89 C 1 67.886 73.614 9.647 
90 C 1 68.282 72.28 9.915 
101 C 1 68.685 71.443 8.843 
305 C 1 67.767 74.536 14.471 
306 C 1 67.989 73.161 14.739 
315 C 1 67.811 74.073 12.059 
316 C 1 68.121 72.716 12.327 
317 C 1 68.282 72.28 13.667 
329 C 1 68.47 71.855 11.255 
4388 C 1 67.767 74.536 8.33 
5292 O 3 73.0691 73.2424 9.3052 
5294 H 2 72.2987 73.6963 8.96379 
4559 H 2 72.4613 74.478 15.3766 
5443 H 2 74.7371 71.4531 15.3671 
5293 H 2 73.7543 73.9106 9.32034 
102 C 1 69.481 70.302 9.111 
103 C 1 69.793 69.958 10.451 
104 C 1 70.853 69.055 10.719 
115 C 1 70.127 69.634 8.039 
116 C 1 71.243 68.802 8.307 
318 C 1 68.925 71.046 13.935 
319 C 1 69.191 70.665 15.275 
320 C 1 70.127 69.634 15.543 
330 C 1 69.191 70.665 11.523 
331 C 1 69.481 70.302 12.863 
332 C 1 70.481 69.333 13.131 
333 C 1 70.853 69.055 14.471 
343 C 1 71.243 68.802 12.059 
4415 C 1 69.793 69.958 8.062 
4416 C 1 70.853 69.055 8.33 
4781 H 2 73.0153 71.6969 12.1394 
4814 H 2 72.6624 72.6181 14.516 
4812 O 3 71.8521 73.1021 14.3567 
4813 H 2 71.6491 72.9339 13.4365 
4780 H 2 72.7699 72.3172 10.7804 
4779 O 3 72.4068 72.2629 11.6644 
5474 H 2 72.4381 74.3159 11.3417 
5444 H 2 74.4249 71.2636 13.8979 
5442 O 3 74.021 71.4979 14.7335 
5188 H 2 75.5747 71.5999 8.04171 
5645 H 2 76.866 74.3523 8.6075 
5643 O 3 77.7837 74.1195 8.46673 
5644 H 2 78.2767 74.7926 8.93597 
5187 O 3 76.2571 71.4288 8.69076 
5189 H 2 76.9394 72.0715 8.49663 
4524 O 3 75.0377 70.9343 11.8972 
4526 H 2 75.3264 70.9183 10.9847 
4525 H 2 75.7089 71.4428 12.3524 
5224 H 2 76.7127 72.9618 13.0796 
5223 O 3 77.1515 72.1447 13.3164 
146 C 1 79.147 69.055 9.915 
157 C 1 79.873 69.634 8.843 
158 C 1 80.809 70.665 9.111 
159 C 1 81.075 71.046 10.451 
372 C 1 78.757 68.802 12.327 
373 C 1 79.147 69.055 13.667 
374 C 1 80.207 69.958 13.935 
375 C 1 80.519 70.302 15.275 
381 C 1 79.519 69.333 11.255 
382 C 1 80.519 70.302 11.523 
383 C 1 80.809 70.665 12.863 
4471 C 1 81.075 71.046 8.062 
5673 O 3 76.0303 74.8369 13.0055 
5225 H 2 78.0589 72.3993 13.4838 
160 C 1 81.718 72.28 10.719 
171 C 1 81.315 71.443 8.039 
172 C 1 81.879 72.716 8.307 
173 C 1 82.011 73.161 9.647 
174 C 1 82.233 74.536 9.915 
376 C 1 81.315 71.443 15.543 
384 C 1 81.53 71.855 13.131 
385 C 1 81.718 72.28 14.471 
386 C 1 82.114 73.614 14.739 
389 C 1 81.879 72.716 12.059 
390 C 1 82.189 74.073 12.327 
391 C 1 82.233 74.536 13.667 
4472 C 1 81.718 72.28 8.33 
62 C 1 68.685 78.557 9.915 
73 C 1 68.282 77.72 8.843 
74 C 1 67.886 76.386 9.111 
75 C 1 67.811 75.927 10.451 
87 C 1 67.767 75.464 8.039 
289 C 1 68.685 78.557 13.667 
290 C 1 68.121 77.284 13.935 
291 C 1 67.989 76.839 15.275 
292 C 1 67.767 75.464 15.543 
301 C 1 68.47 78.145 11.255 
302 C 1 67.989 76.839 11.523 
303 C 1 67.886 76.386 12.863 
304 C 1 67.752 75 13.131 
4387 C 1 67.811 75.927 8.062 
4720 H 2 73.386 79.4316 8.60167 
4760 H 2 71.1812 75.9199 14.9377 
4759 H 2 70.0889 76.0995 13.905 
5608 H 2 74.6454 77.2984 14.1037 
5472 O 3 72.1796 75.2373 11.3199 
5473 H 2 71.568 75.3323 12.0501 
4758 O 3 71.0391 76.1333 14.0154 
5632 H 2 71.4116 75.9224 9.6089 
5631 O 3 71.287 76.586 8.93042 
5633 H 2 71.9109 77.2769 9.15307 
47 C 1 71.243 81.198 10.451 
48 C 1 70.127 80.366 10.719 
59 C 1 70.853 80.945 8.039 
60 C 1 69.793 80.042 8.307 
61 C 1 69.481 79.698 9.647 
264 C 1 70.853 80.945 15.543 
276 C 1 70.481 80.667 13.131 
277 C 1 70.127 80.366 14.471 
278 C 1 69.191 79.335 14.739 
287 C 1 69.793 80.042 12.059 
288 C 1 68.925 78.954 12.327 
4359 C 1 71.243 81.198 8.062 
4360 C 1 70.127 80.366 8.33 
4516 H 2 73.5232 76.4143 11.5363 
5749 H 2 74.542 75.4361 8.2258 
4719 O 3 73.7869 78.8458 7.95951 
5748 O 3 74.9783 75.1957 9.04312 
5750 H 2 74.7678 75.9085 9.64628 
4515 O 3 74.4116 76.7668 11.4831 
4517 H 2 74.9774 76.0245 11.6955 
4721 H 2 74.6511 78.6489 8.32091 
5168 H 2 79.6546 75.4204 12.8112 
5167 H 2 78.855 75.2268 14.0821 
5166 O 3 78.8182 75.0868 13.1359 
5607 O 3 75.0037 76.7914 14.8323 
5433 O 3 78.0869 76.9153 9.68465 
5434 H 2 77.7112 76.8506 8.80663 
5435 H 2 78.849 77.4846 9.57822 
4649 H 2 75.6655 78.6132 10.9668 
4647 O 3 75.856 78.6895 10.0319 
4648 H 2 76.6228 78.1328 9.89701 
5675 H 2 75.6295 75.0959 13.8353 
5674 H 2 76.9064 75.2216 13.0318 
8 C 1 81.075 78.954 8.307 
9 C 1 80.809 79.335 9.647 
10 C 1 79.873 80.366 9.915 
17 C 1 79.147 80.945 8.843 
222 C 1 80.519 79.698 14.739 
231 C 1 81.075 78.954 12.059 
232 C 1 80.207 80.042 12.327 
233 C 1 79.873 80.366 13.667 
234 C 1 78.757 81.198 13.935 
245 C 1 79.519 80.667 11.255 
5609 H 2 75.1044 77.4273 15.5406 
1 C 1 82.233 75.464 8.843 
2 C 1 82.011 76.839 9.111 
3 C 1 81.879 77.284 10.451 
4 C 1 81.315 78.557 10.719 
7 C 1 81.718 77.72 8.039 
207 C 1 82.114 76.386 15.275 
208 C 1 81.718 77.72 15.543 
217 C 1 82.248 75 11.255 
218 C 1 82.114 76.386 11.523 
219 C 1 82.011 76.839 12.863 
220 C 1 81.53 78.145 13.131 
221 C 1 81.315 78.557 14.471 
392 C 1 82.189 75.927 13.935 
4315 C 1 81.879 77.284 8.062 
4316 C 1 81.315 78.557 8.33 
260 C 1 74.304 82.215 12.327 
262 C 1 72.497 81.802 13.935 
274 C 1 72.066 81.628 11.523 
45 C 1 72.938 81.949 8.843 
263 C 1 72.066 81.628 15.275 
261 C 1 73.843 82.155 13.667 
250 C 1 74.768 82.244 14.739 
275 C 1 71.647 81.426 12.863 
46 C 1 71.647 81.426 9.111 
34 C 1 73.843 82.155 9.915 
273 C 1 73.387 82.066 11.255 
235 C 1 78.353 81.426 15.275 
4332 C 1 76.157 82.155 8.33 
249 C 1 76.157 82.155 14.471 
246 C 1 78.353 81.426 11.523 
259 C 1 75.696 82.215 12.059 
20 C 1 76.157 82.155 10.719 
236 C 1 77.062 81.949 15.543 
33 C 1 75.232 82.244 9.647 
247 C 1 77.934 81.628 12.863 
19 C 1 77.503 81.802 10.451 
18 C 1 77.934 81.628 9.111 
248 C 1 76.613 82.066 13.131 
32 C 1 75.696 82.215 8.307 
4331 C 1 77.503 81.802 8.062 
31 C 1 77.062 81.949 8.039 
313 C 1 71.647 68.574 20.902 
314 C 1 72.938 68.051 21.17 
322 C 1 71.647 68.574 17.151 
323 C 1 72.066 68.372 18.49 
324 C 1 73.387 67.934 18.758 
325 C 1 73.843 67.845 20.098 
335 C 1 72.497 68.198 16.079 
336 C 1 73.843 67.845 16.347 
337 C 1 74.304 67.785 17.686 
553 C 1 73.387 67.934 22.51 
554 C 1 74.768 67.756 22.778 
326 C 1 75.232 67.756 20.366 
327 C 1 75.696 67.785 21.706 
328 C 1 77.062 68.051 21.974 
338 C 1 75.696 67.785 17.954 
339 C 1 76.157 67.845 19.294 
340 C 1 77.503 68.198 19.562 
341 C 1 77.934 68.372 20.902 
349 C 1 76.613 67.934 16.883 
350 C 1 77.934 68.372 17.151 
351 C 1 78.353 68.574 18.49 
567 C 1 77.503 68.198 23.314 
272 C 1 67.767 74.536 21.974 
284 C 1 67.811 74.073 19.562 
285 C 1 67.886 73.614 20.902 
286 C 1 68.282 72.28 21.17 
294 C 1 67.886 73.614 17.151 
295 C 1 67.989 73.161 18.49 
296 C 1 68.47 71.855 18.758 
297 C 1 68.685 71.443 20.098 
307 C 1 68.121 72.716 16.079 
308 C 1 68.685 71.443 16.347 
511 C 1 67.811 74.073 23.314 
525 C 1 68.47 71.855 22.51 
298 C 1 69.481 70.302 20.366 
299 C 1 69.793 69.958 21.706 
300 C 1 70.853 69.055 21.974 
309 C 1 68.925 71.046 17.686 
310 C 1 69.793 69.958 17.954 
311 C 1 70.127 69.634 19.294 
312 C 1 71.243 68.802 19.562 
321 C 1 70.481 69.333 16.883 
526 C 1 69.191 70.665 22.778 
539 C 1 71.243 68.802 23.314 
4551 O 3 72.5907 73.7528 22.5203 
4552 H 2 72.5244 73.4855 21.6036 
4564 H 2 74.2945 70.1882 20.2377 
4563 O 3 74.6005 71.0472 20.5284 
4565 H 2 73.8159 71.5955 20.5244 
5416 H 2 74.0454 71.0562 22.6786 
5056 H 2 73.7125 74.2471 17.5658 
5055 O 3 74.2864 74.0201 18.2975 
4600 H 2 71.5225 72.6825 19.416 
4553 H 2 72.7301 72.9358 22.9991 
4601 H 2 72.9203 73.2509 19.5382 
4599 O 3 72.2226 72.8409 20.0493 
5057 H 2 74.8849 73.3649 17.9388 
5691 O 3 76.2281 74.9191 22.4482 
4888 H 2 76.049 71.6488 19.4708 
5779 H 2 76.6095 72.3238 17.2081 
5778 O 3 76.0182 72.2542 16.4586 
4836 O 3 78.8089 73.2963 17.7915 
4838 H 2 78.3892 72.6575 18.3677 
4837 H 2 78.5016 74.1451 18.1099 
4887 O 3 76.9309 71.9986 19.3439 
4889 H 2 77.3317 71.9596 20.2123 
342 C 1 79.147 69.055 21.17 
352 C 1 79.519 69.333 18.758 
353 C 1 79.873 69.634 20.098 
354 C 1 80.809 70.665 20.366 
355 C 1 81.075 71.046 21.706 
363 C 1 78.757 68.802 16.079 
364 C 1 79.873 69.634 16.347 
365 C 1 80.207 69.958 17.686 
366 C 1 81.075 71.046 17.954 
577 C 1 79.519 69.333 22.51 
578 C 1 80.519 70.302 22.778 
5286 O 3 78.1522 72.4085 22.1931 
5288 H 2 78.9808 72.82 21.9474 
5692 H 2 76.863 74.2344 22.238 
5498 H 2 75.8136 74.9098 19.2446 
5693 H 2 75.3838 74.4683 22.4592 
5287 H 2 78.2435 72.2248 23.128 
5780 H 2 76.5949 72.0904 15.7124 
356 C 1 81.718 72.28 21.974 
367 C 1 81.315 71.443 19.294 
368 C 1 81.879 72.716 19.562 
369 C 1 82.011 73.161 20.902 
370 C 1 82.233 74.536 21.17 
377 C 1 81.53 71.855 16.883 
378 C 1 82.011 73.161 17.151 
379 C 1 82.114 73.614 18.49 
387 C 1 82.189 74.073 16.079 
585 C 1 81.879 72.716 23.314 
258 C 1 68.685 78.557 21.17 
268 C 1 68.47 78.145 18.758 
269 C 1 68.282 77.72 20.098 
270 C 1 67.886 76.386 20.366 
271 C 1 67.811 75.927 21.706 
280 C 1 68.282 77.72 16.347 
281 C 1 68.121 77.284 17.686 
282 C 1 67.811 75.927 17.954 
283 C 1 67.767 75.464 19.294 
293 C 1 67.752 75 16.883 
497 C 1 68.47 78.145 22.51 
498 C 1 67.989 76.839 22.778 
5685 O 3 71.3164 76.1458 20.8204 
243 C 1 71.243 81.198 21.706 
244 C 1 70.127 80.366 21.974 
254 C 1 71.243 81.198 17.954 
255 C 1 70.853 80.945 19.294 
256 C 1 69.793 80.042 19.562 
257 C 1 69.481 79.698 20.902 
265 C 1 70.481 80.667 16.883 
266 C 1 69.481 79.698 17.151 
267 C 1 69.191 79.335 18.49 
279 C 1 68.925 78.954 16.079 
483 C 1 69.793 80.042 23.314 
5687 H 2 71.7586 75.4201 21.2609 
5686 H 2 70.9118 76.6459 21.5292 
4903 H 2 72.5264 79.1819 22.6651 
4902 O 3 72.6365 78.2401 22.5346 
4904 H 2 72.864 78.151 21.6091 
4557 O 3 72.8108 75.0759 16.0375 
4558 H 2 73.5826 75.4643 15.6256 
5027 H 2 79.3925 75.6097 19.1686 
5025 O 3 78.7042 76.1226 18.745 
4556 H 2 78.4172 76.3293 16.5772 
4555 H 2 77.1755 76.3906 15.7133 
5497 H 2 76.2654 75.1867 20.6628 
4736 H 2 75.6132 77.8553 23.3548 
5026 H 2 77.9433 76.0217 19.3169 
4772 H 2 79.4987 75.4716 22.4461 
4771 H 2 78.3617 75.7851 21.4969 
4770 O 3 79.1737 75.283 21.5657 
4554 O 3 78.0988 76.139 15.6948 
5496 O 3 76.4059 75.4607 19.7565 
5073 O 3 75.6187 78.4868 20.0421 
4670 H 2 75.852 78.4406 17.9397 
5075 H 2 75.5384 77.5755 19.7604 
5074 H 2 76.1997 78.4528 20.802 
204 C 1 81.075 78.954 19.562 
205 C 1 80.809 79.335 20.902 
206 C 1 79.873 80.366 21.17 
210 C 1 80.809 79.335 17.151 
211 C 1 80.519 79.698 18.49 
212 C 1 79.519 80.667 18.758 
213 C 1 79.147 80.945 20.098 
223 C 1 80.207 80.042 16.079 
224 C 1 79.147 80.945 16.347 
225 C 1 78.757 81.198 17.686 
427 C 1 81.075 78.954 23.314 
441 C 1 79.519 80.667 22.51 
4668 O 3 75.9591 78.2772 17.0026 
4669 H 2 76.7858 78.7038 16.7775 
5621 H 2 78.2124 78.3369 21.8307 
5620 H 2 77.7091 77.6789 23.0978 
5619 O 3 77.449 77.8951 22.2023 
197 C 1 82.233 75.464 20.098 
198 C 1 82.011 76.839 20.366 
199 C 1 81.879 77.284 21.706 
200 C 1 81.315 78.557 21.974 
201 C 1 82.189 75.927 17.686 
202 C 1 81.879 77.284 17.954 
203 C 1 81.718 77.72 19.294 
209 C 1 81.53 78.145 16.883 
380 C 1 82.248 75 18.758 
388 C 1 82.233 75.464 16.347 
413 C 1 82.248 75 22.51 
414 C 1 82.114 76.386 22.778 
230 C 1 73.843 82.155 21.17 
239 C 1 74.768 82.244 18.49 
240 C 1 73.387 82.066 18.758 
241 C 1 72.938 81.949 20.098 
242 C 1 71.647 81.426 20.366 
251 C 1 74.304 82.215 16.079 
252 C 1 72.938 81.949 16.347 
253 C 1 72.497 81.802 17.686 
469 C 1 73.387 82.066 22.51 
470 C 1 72.066 81.628 22.778 
214 C 1 77.934 81.628 20.366 
215 C 1 77.503 81.802 21.706 
216 C 1 76.157 82.155 21.974 
226 C 1 77.503 81.802 17.954 
227 C 1 77.062 81.949 19.294 
228 C 1 75.696 82.215 19.562 
229 C 1 75.232 82.244 20.902 
237 C 1 76.613 82.066 16.883 
238 C 1 75.232 82.244 17.151 
442 C 1 78.353 81.426 22.778 
455 C 1 75.696 82.215 23.314 
518 C 1 71.647 68.574 28.406 
519 C 1 72.066 68.372 29.745 
520 C 1 73.387 67.934 30.013 
530 C 1 72.066 68.372 25.994 
531 C 1 72.497 68.198 27.334 
532 C 1 73.843 67.845 27.602 
533 C 1 74.304 67.785 28.941 
540 C 1 72.497 68.198 23.582 
541 C 1 72.938 68.051 24.922 
542 C 1 74.304 67.785 25.19 
543 C 1 74.768 67.756 26.53 
534 C 1 75.696 67.785 29.209 
535 C 1 76.157 67.845 30.549 
536 C 1 77.503 68.198 30.817 
544 C 1 76.157 67.845 26.798 
545 C 1 76.613 67.934 28.138 
546 C 1 77.934 68.372 28.406 
547 C 1 78.353 68.574 29.745 
555 C 1 75.232 67.756 24.118 
556 C 1 76.613 67.934 24.386 
557 C 1 77.062 68.051 25.726 
558 C 1 78.353 68.574 25.994 
480 C 1 67.811 74.073 30.817 
490 C 1 67.886 73.614 28.406 
491 C 1 67.989 73.161 29.745 
492 C 1 68.47 71.855 30.013 
501 C 1 67.767 74.536 25.726 
502 C 1 67.989 73.161 25.994 
503 C 1 68.121 72.716 27.334 
504 C 1 68.685 71.443 27.602 
512 C 1 68.121 72.716 23.582 
513 C 1 68.282 72.28 24.922 
5417 H 2 74.1215 71.0642 24.1906 
5415 O 3 73.5552 71.3124 23.4598 
5048 H 2 70.7398 74.7245 24.5068 
505 C 1 68.925 71.046 28.941 
506 C 1 69.793 69.958 29.209 
507 C 1 70.127 69.634 30.549 
508 C 1 71.243 68.802 30.817 
514 C 1 68.925 71.046 25.19 
515 C 1 69.191 70.665 26.53 
516 C 1 70.127 69.634 26.798 
517 C 1 70.481 69.333 28.138 
527 C 1 69.481 70.302 24.118 
528 C 1 70.481 69.333 24.386 
529 C 1 70.853 69.055 25.726 
5683 H 2 71.7986 74.9726 26.9109 
5682 O 3 71.4275 74.2153 27.3637 
5334 O 3 74.5283 71.1451 26.0786 
5335 H 2 74.3425 71.6955 26.8393 
4859 H 2 72.605 71.9358 28.8649 
5684 H 2 70.6593 73.9779 26.8443 
4858 H 2 73.4244 72.8373 29.7636 
4857 O 3 73.2523 71.9159 29.5697 
4870 H 2 74.9057 71.3497 29.7048 
5715 O 3 74.5989 74.4001 29.8107 
5366 H 2 75.1887 74.1328 25.7971 
5364 O 3 75.8856 73.5073 25.5986 
5365 H 2 75.5046 72.6523 25.7987 
5336 H 2 75.17 70.5086 26.3939 
548 C 1 79.519 69.333 30.013 
559 C 1 78.757 68.802 27.334 
560 C 1 79.873 69.634 27.602 
561 C 1 80.207 69.958 28.941 
562 C 1 81.075 71.046 29.209 
568 C 1 78.757 68.802 23.582 
569 C 1 79.147 69.055 24.922 
570 C 1 80.207 69.958 25.19 
571 C 1 80.519 70.302 26.53 
579 C 1 80.809 70.665 24.118 
4851 O 3 78.5003 72.8132 25.0531 
4853 H 2 77.5925 73.105 25.137 
4852 H 2 79.0218 73.5816 25.285 
5050 H 2 77.6679 72.2424 27.9647 
5049 O 3 76.9354 72.6198 28.4519 
5051 H 2 76.6816 71.9358 29.0715 
4871 H 2 75.5967 70.8912 30.9714 
4869 O 3 75.698 70.9147 30.0198 
5111 H 2 76.8843 74.4397 28.143 
5717 H 2 75.3604 74.3637 29.2319 
563 C 1 81.315 71.443 30.549 
564 C 1 81.879 72.716 30.817 
572 C 1 81.315 71.443 26.798 
573 C 1 81.53 71.855 28.138 
574 C 1 82.011 73.161 28.406 
575 C 1 82.114 73.614 29.745 
580 C 1 81.53 71.855 24.386 
581 C 1 81.718 72.28 25.726 
582 C 1 82.114 73.614 25.994 
583 C 1 82.189 74.073 27.334 
586 C 1 82.189 74.073 23.582 
587 C 1 82.233 74.536 24.922 
464 C 1 68.47 78.145 30.013 
476 C 1 68.282 77.72 27.602 
477 C 1 68.121 77.284 28.941 
478 C 1 67.811 75.927 29.209 
479 C 1 67.767 75.464 30.549 
485 C 1 68.685 78.557 24.922 
486 C 1 68.121 77.284 25.19 
487 C 1 67.989 76.839 26.53 
488 C 1 67.767 75.464 26.798 
489 C 1 67.752 75 28.138 
499 C 1 67.886 76.386 24.118 
500 C 1 67.752 75 24.386 
4861 H 2 73.4305 75.3029 25.6851 
4860 O 3 73.9263 75.583 26.4545 
5716 H 2 74.5782 75.3044 30.1236 
4735 H 2 74.2159 77.6505 23.9004 
5047 H 2 71.9008 75.1635 23.6402 
5046 O 3 71.4854 75.3244 24.4874 
4717 H 2 73.2324 78.2648 28.8746 
4718 H 2 72.1569 78.9432 28.0529 
4862 H 2 73.6062 76.4663 26.6378 
4988 H 2 71.281 76.6801 29.1557 
4986 O 3 70.9592 75.9687 29.7095 
4716 O 3 72.6656 78.1346 28.1143 
450 C 1 71.243 81.198 29.209 
451 C 1 70.853 80.945 30.549 
452 C 1 69.793 80.042 30.817 
460 C 1 70.853 80.945 26.798 
461 C 1 70.481 80.667 28.138 
462 C 1 69.481 79.698 28.406 
463 C 1 69.191 79.335 29.745 
472 C 1 70.481 80.667 24.386 
473 C 1 70.127 80.366 25.726 
474 C 1 69.191 79.335 25.994 
475 C 1 68.925 78.954 27.334 
484 C 1 68.925 78.954 23.582 
4987 H 2 71.0324 75.1868 29.1622 
5136 O 3 74.1614 78.9861 30.0714 
5137 H 2 74.9884 78.5058 30.1111 
5138 H 2 73.8859 79.0654 30.9847 
4815 O 3 76.4709 77.2013 30.211 
5123 H 2 77.5043 75.9643 24.1871 
5122 H 2 77.7047 77.1077 25.1589 
5121 O 3 78.1133 76.6671 24.4138 
4734 O 3 75.0708 78.0168 24.1268 
5606 H 2 76.0832 78.0123 25.6593 
5605 H 2 76.7702 79.0301 26.5448 
5604 O 3 76.817 78.1159 26.2652 
5493 O 3 79.4665 75.0115 26.0738 
5494 H 2 79.2382 75.7321 25.4865 
4816 H 2 76.7214 76.9545 29.3208 
5495 H 2 78.9297 75.1575 26.8527 
5110 H 2 76.4423 75.7757 27.5848 
5109 O 3 77.1914 75.332 27.9823 
400 C 1 81.075 78.954 30.817 
406 C 1 80.809 79.335 28.406 
407 C 1 80.519 79.698 29.745 
408 C 1 79.519 80.667 30.013 
418 C 1 80.519 79.698 25.994 
419 C 1 80.207 80.042 27.334 
420 C 1 79.147 80.945 27.602 
421 C 1 78.757 81.198 28.941 
428 C 1 80.207 80.042 23.582 
429 C 1 79.873 80.366 24.922 
430 C 1 78.757 81.198 25.19 
4817 H 2 77.1689 76.849 30.7632 
403 C 1 82.114 76.386 26.53 
415 C 1 82.011 76.839 24.118 
397 C 1 82.189 75.927 28.941 
398 C 1 81.879 77.284 29.209 
584 C 1 82.233 75.464 27.602 
417 C 1 81.315 78.557 25.726 
588 C 1 82.189 75.927 25.19 
399 C 1 81.718 77.72 30.549 
576 C 1 82.248 75 30.013 
416 C 1 81.53 78.145 24.386 
405 C 1 81.53 78.145 28.138 
404 C 1 81.718 77.72 26.798 
459 C 1 72.066 81.628 26.53 
456 C 1 74.304 82.215 23.582 
471 C 1 71.647 81.426 24.118 
435 C 1 74.768 82.244 29.745 
446 C 1 74.768 82.244 25.994 
448 C 1 72.938 81.949 27.602 
447 C 1 74.304 82.215 27.334 
458 C 1 72.497 81.802 25.19 
449 C 1 72.497 81.802 28.941 
436 C 1 73.387 82.066 30.013 
457 C 1 73.843 82.155 24.922 
423 C 1 77.062 81.949 30.549 
433 C 1 76.613 82.066 28.138 
432 C 1 77.062 81.949 26.798 
445 C 1 76.157 82.155 25.726 
431 C 1 78.353 81.426 26.53 
434 C 1 75.232 82.244 28.406 
424 C 1 75.696 82.215 30.817 
444 C 1 76.613 82.066 24.386 
422 C 1 77.503 81.802 29.209 
443 C 1 77.934 81.628 24.118 
509 C 1 71.647 68.574 32.157 
510 C 1 72.938 68.051 32.425 
521 C 1 73.843 67.845 31.353 
726 C 1 72.066 68.372 37.249 
727 C 1 72.497 68.198 38.589 
728 C 1 73.843 67.845 38.857 
736 C 1 72.497 68.198 34.837 
737 C 1 72.938 68.051 36.177 
738 C 1 74.304 67.785 36.445 
739 C 1 74.768 67.756 37.785 
749 C 1 73.387 67.934 33.765 
750 C 1 74.768 67.756 34.033 
522 C 1 75.232 67.756 31.621 
523 C 1 75.696 67.785 32.961 
524 C 1 77.062 68.051 33.229 
537 C 1 77.934 68.372 32.157 
740 C 1 76.157 67.845 38.053 
751 C 1 75.232 67.756 35.373 
752 C 1 76.613 67.934 35.641 
753 C 1 77.062 68.051 36.981 
754 C 1 78.353 68.574 37.249 
763 C 1 77.503 68.198 34.569 
468 C 1 67.767 74.536 33.229 
481 C 1 67.886 73.614 32.157 
482 C 1 68.282 72.28 32.425 
493 C 1 68.685 71.443 31.353 
697 C 1 67.767 74.536 36.981 
698 C 1 67.989 73.161 37.249 
699 C 1 68.121 72.716 38.589 
700 C 1 68.685 71.443 38.857 
707 C 1 67.811 74.073 34.569 
708 C 1 68.121 72.716 34.837 
709 C 1 68.282 72.28 36.177 
721 C 1 68.47 71.855 33.765 
494 C 1 69.481 70.302 31.621 
495 C 1 69.793 69.958 32.961 
496 C 1 70.853 69.055 33.229 
710 C 1 68.925 71.046 36.445 
711 C 1 69.191 70.665 37.785 