C_29_4_11.pdb > C_29_4_11.data (lammps datafile)

5084 atoms
976 bonds
488 angles
0 dihedrals
0 impropers

3 atom types
1 bond types
1 angle types

0.0 150 xlo xhi
0.0 150 ylo yhi
0.0 288.378 zlo zhi

Masses

1 12.011
2 1.008
3 15.9994

Atoms

1 1 1 0.0 80.209 78.477 0.457
2 1 1 0.0 80.015 79.469 1.466
3 1 1 0.0 80.217 78.386 5.608
4 1 1 0.0 79.455 80.726 1.094
5 1 1 0.0 78.848 81.533 2.103
6 1 1 0.0 80.107 79.113 2.847
7 1 1 0.0 79.795 80.073 3.856
8 1 1 0.0 79.929 79.731 5.236
9 1 1 0.0 79.503 80.647 6.246
10 1 1 0.0 80.234 78.018 6.989
11 1 1 0.0 80.127 79.023 7.998
12 1 1 0.0 80.188 78.660 9.379
13 1 1 0.0 79.959 79.644 10.388
14 1 1 0.0 80.199 78.569 14.530
15 1 1 0.0 77.480 82.608 0.351
16 1 1 0.0 77.796 82.420 1.731
17 1 1 0.0 76.898 82.882 2.740
18 1 1 0.0 79.087 81.253 3.484
19 1 1 0.0 78.386 81.981 4.493
20 1 1 0.0 78.657 81.732 5.874
21 1 1 0.0 77.873 82.370 6.883
22 1 1 0.0 79.678 80.323 7.626
23 1 1 0.0 79.143 81.181 8.635
24 1 1 0.0 79.356 80.881 10.016
25 1 1 0.0 78.722 81.667 11.025
26 1 1 0.0 80.064 79.292 11.769
27 1 1 0.0 79.718 80.241 12.778
28 1 1 0.0 79.865 79.903 14.159
29 1 1 0.0 79.407 80.804 15.168
30 1 1 0.0 80.229 78.202 15.911
31 1 1 0.0 80.087 79.202 16.920
32 1 1 0.0 80.160 78.842 18.301
33 1 1 0.0 79.898 79.818 19.310
34 1 1 0.0 80.232 78.110 21.063
35 1 1 0.0 80.175 78.751 23.453
36 1 1 0.0 75.198 83.253 0.988
37 1 1 0.0 75.564 83.222 2.369
38 1 1 0.0 74.554 83.245 3.378
39 1 1 0.0 77.235 82.734 4.121
40 1 1 0.0 76.287 83.084 5.130
41 1 1 0.0 76.639 82.978 6.511
42 1 1 0.0 75.656 83.210 7.520
43 1 1 0.0 78.172 82.155 8.264
44 1 1 0.0 77.317 82.693 9.273
45 1 1 0.0 77.640 82.517 10.654
46 1 1 0.0 76.726 82.947 11.663
47 1 1 0.0 78.970 81.395 12.406
48 1 1 0.0 78.244 82.099 13.415
49 1 1 0.0 78.524 81.859 14.796
50 1 1 0.0 77.718 82.469 15.805
51 1 1 0.0 79.593 80.487 16.549
52 1 1 0.0 79.029 81.325 17.558
53 1 1 0.0 79.252 81.033 18.938
54 1 1 0.0 78.591 81.796 19.948
55 1 1 0.0 80.015 79.469 20.691
56 1 1 0.0 79.636 80.405 21.700
57 1 1 0.0 79.795 80.073 23.081
58 1 1 0.0 79.305 80.957 24.090
59 1 1 0.0 80.217 78.386 24.833
60 1 1 0.0 80.040 79.380 25.843
61 1 1 0.0 80.127 79.023 27.223
62 1 1 0.0 79.831 79.989 28.232
63 1 1 0.0 80.224 78.294 29.985
64 1 1 0.0 80.144 78.932 32.375
65 1 1 0.0 73.826 83.142 0.616
66 1 1 0.0 72.863 82.837 1.625
67 1 1 0.0 73.206 82.969 3.006
68 1 1 0.0 72.287 82.550 4.015
69 1 1 0.0 74.922 83.259 4.759
70 1 1 0.0 73.916 83.160 5.768
71 1 1 0.0 74.280 83.218 7.148
72 1 1 0.0 73.294 82.999 8.157
73 1 1 0.0 76.018 83.147 8.901
74 1 1 0.0 75.014 83.259 9.910
75 1 1 0.0 75.381 83.240 11.291
76 1 1 0.0 74.371 83.229 12.300
77 1 1 0.0 77.067 82.811 13.043
78 1 1 0.0 76.108 83.128 14.052
79 1 1 0.0 76.464 83.034 15.433
80 1 1 0.0 75.473 83.232 16.442
81 1 1 0.0 78.025 82.265 17.186
82 1 1 0.0 77.151 82.773 18.195
83 1 1 0.0 77.480 82.608 19.576
84 1 1 0.0 76.552 83.006 20.585
85 1 1 0.0 78.848 81.533 21.328
86 1 1 0.0 78.099 82.211 22.337
87 1 1 0.0 78.386 81.981 23.718
88 1 1 0.0 77.560 82.563 24.727
89 1 1 0.0 79.503 80.647 25.471
90 1 1 0.0 78.910 81.465 26.480
91 1 1 0.0 79.143 81.181 27.861
92 1 1 0.0 78.455 81.921 28.870
93 1 1 0.0 79.959 79.644 29.613
94 1 1 0.0 79.548 80.567 30.622
95 1 1 0.0 79.718 80.241 32.003
96 1 1 0.0 79.198 81.107 33.012
97 1 1 0.0 80.199 78.569 33.756
98 1 1 0.0 79.988 79.557 34.765
99 1 1 0.0 80.087 79.202 36.146
100 1 1 0.0 79.757 80.157 37.155
101 1 1 0.0 80.209 78.477 38.907
102 1 1 0.0 80.232 78.110 40.288
103 1 1 0.0 80.107 79.113 41.297
104 1 1 0.0 80.234 78.018 45.440
105 1 1 0.0 70.029 79.965 0.510
106 1 1 0.0 71.677 82.140 1.253
107 1 1 0.0 70.943 81.446 2.262
108 1 1 0.0 71.194 81.714 3.643
109 1 1 0.0 70.550 80.936 4.652
110 1 1 0.0 72.612 82.723 5.396
111 1 1 0.0 71.750 82.196 6.405
112 1 1 0.0 72.052 82.406 7.786
113 1 1 0.0 71.260 81.778 8.795
114 1 1 0.0 73.647 83.100 9.538
115 1 1 0.0 72.695 82.763 10.547
116 1 1 0.0 73.034 82.906 11.928
117 1 1 0.0 72.129 82.456 12.937
118 1 1 0.0 74.738 83.255 13.681
119 1 1 0.0 73.737 83.122 14.690
120 1 1 0.0 74.098 83.193 16.071
121 1 1 0.0 73.120 82.939 17.080
122 1 1 0.0 75.837 83.182 17.823
123 1 1 0.0 74.830 83.258 18.832
124 1 1 0.0 75.198 83.253 20.213
125 1 1 0.0 74.189 83.206 21.222
126 1 1 0.0 76.898 82.882 21.966
127 1 1 0.0 75.928 83.165 22.975
128 1 1 0.0 76.287 83.084 24.356
129 1 1 0.0 75.290 83.247 25.365
130 1 1 0.0 77.873 82.370 26.108
131 1 1 0.0 76.983 82.847 27.117
132 1 1 0.0 77.317 82.693 28.498
133 1 1 0.0 76.375 83.060 29.507
134 1 1 0.0 78.722 81.667 30.251
135 1 1 0.0 77.949 82.318 31.260
136 1 1 0.0 78.244 82.099 32.640
137 1 1 0.0 77.399 82.651 33.649
138 1 1 0.0 79.407 80.804 34.393
139 1 1 0.0 78.785 81.601 35.402
140 1 1 0.0 79.029 81.325 36.783
141 1 1 0.0 78.316 82.040 37.792
142 1 1 0.0 79.898 79.818 38.535
143 1 1 0.0 79.455 80.726 39.544
144 1 1 0.0 79.636 80.405 40.925
145 1 1 0.0 79.087 81.253 41.934
146 1 1 0.0 80.175 78.751 42.678
147 1 1 0.0 79.929 79.731 43.687
148 1 1 0.0 80.040 79.380 45.068
149 1 1 0.0 79.678 80.323 46.077
150 1 1 0.0 80.188 78.660 47.829
151 1 1 0.0 80.224 78.294 49.210
152 1 1 0.0 80.064 79.292 50.219
153 1 1 0.0 80.229 78.202 54.362
154 1 1 0.0 69.678 78.635 0.138
155 1 1 0.0 69.646 77.625 1.147
156 1 1 0.0 70.180 80.301 1.891
157 1 1 0.0 69.822 79.356 2.900
158 1 1 0.0 69.931 79.707 4.281
159 1 1 0.0 69.691 78.726 5.290
160 1 1 0.0 70.767 81.233 6.033
161 1 1 0.0 70.221 80.383 7.042
162 1 1 0.0 70.401 80.704 8.423
163 1 1 0.0 69.963 79.794 9.432
164 1 1 0.0 71.534 82.024 10.176
165 1 1 0.0 70.824 81.305 11.185
166 1 1 0.0 71.066 81.582 12.565
167 1 1 0.0 70.449 80.782 13.575
168 1 1 0.0 72.448 82.640 14.318
169 1 1 0.0 71.605 82.083 15.327
170 1 1 0.0 71.899 82.304 16.708
171 1 1 0.0 71.130 81.649 17.717
172 1 1 0.0 73.470 83.053 18.460
173 1 1 0.0 72.530 82.682 19.470
174 1 1 0.0 72.863 82.837 20.850
175 1 1 0.0 71.975 82.356 21.859
176 1 1 0.0 74.554 83.245 22.603
177 1 1 0.0 73.558 83.077 23.612
178 1 1 0.0 73.916 83.160 24.993
179 1 1 0.0 72.948 82.873 26.002
180 1 1 0.0 75.656 83.210 26.745
181 1 1 0.0 74.646 83.251 27.754
182 1 1 0.0 75.014 83.259 29.135
183 1 1 0.0 74.007 83.177 30.144
184 1 1 0.0 76.726 82.947 30.888
185 1 1 0.0 75.747 83.197 31.897
186 1 1 0.0 76.108 83.128 33.278
187 1 1 0.0 75.106 83.256 34.287
188 1 1 0.0 77.718 82.469 35.030
189 1 1 0.0 76.812 82.915 36.039
190 1 1 0.0 77.151 82.773 37.420
191 1 1 0.0 76.197 83.106 38.429
192 1 1 0.0 78.591 81.796 39.173
193 1 1 0.0 77.796 82.420 40.182
194 1 1 0.0 78.099 82.211 41.563
195 1 1 0.0 77.235 82.734 42.572
196 1 1 0.0 79.305 80.957 43.315
197 1 1 0.0 78.657 81.732 44.324
198 1 1 0.0 78.910 81.465 45.705
199 1 1 0.0 78.172 82.155 46.714
200 1 1 0.0 79.831 79.989 47.458
201 1 1 0.0 79.356 80.881 48.467
202 1 1 0.0 79.548 80.567 49.848
203 1 1 0.0 78.970 81.395 50.857
204 1 1 0.0 80.144 78.932 51.600
205 1 1 0.0 79.865 79.903 52.609
206 1 1 0.0 79.988 79.557 53.990
207 1 1 0.0 79.593 80.487 54.999
208 1 1 0.0 80.160 78.842 56.752
209 1 1 0.0 69.910 76.275 0.775
210 1 1 0.0 70.321 75.352 1.784
211 1 1 0.0 69.635 77.993 2.528
212 1 1 0.0 69.725 76.986 3.537
213 1 1 0.0 69.670 77.350 4.918
214 1 1 0.0 69.881 76.362 5.927
215 1 1 0.0 69.756 79.088 6.670
216 1 1 0.0 69.636 78.085 7.679
217 1 1 0.0 69.658 78.452 9.060
218 1 1 0.0 69.660 77.442 10.069
219 1 1 0.0 70.102 80.134 10.813
220 1 1 0.0 69.777 79.177 11.822
221 1 1 0.0 69.874 79.532 13.203
222 1 1 0.0 69.667 78.543 14.212
223 1 1 0.0 70.656 81.087 14.955
224 1 1 0.0 70.140 80.218 15.964
225 1 1 0.0 70.308 80.545 17.345
226 1 1 0.0 69.902 79.620 18.354
227 1 1 0.0 71.395 81.904 19.098
228 1 1 0.0 70.711 81.160 20.107
229 1 1 0.0 70.943 81.446 21.488
230 1 1 0.0 70.354 80.625 22.497
231 1 1 0.0 72.287 82.550 23.240
232 1 1 0.0 71.464 81.965 24.249
233 1 1 0.0 71.750 82.196 25.630
234 1 1 0.0 71.004 81.514 26.639
235 1 1 0.0 73.294 82.999 27.383
236 1 1 0.0 72.367 82.596 28.392
237 1 1 0.0 72.695 82.763 29.773
238 1 1 0.0 71.824 82.250 30.782
239 1 1 0.0 74.371 83.229 31.525
240 1 1 0.0 73.381 83.026 32.534
241 1 1 0.0 73.737 83.122 33.915
242 1 1 0.0 72.779 82.801 34.924
243 1 1 0.0 75.473 83.232 35.668
244 1 1 0.0 74.463 83.238 36.677
245 1 1 0.0 74.830 83.258 38.057
246 1 1 0.0 73.826 83.142 39.067
247 1 1 0.0 76.552 83.006 39.810
248 1 1 0.0 75.564 83.222 40.819
249 1 1 0.0 75.928 83.165 42.200
250 1 1 0.0 74.922 83.259 43.209
251 1 1 0.0 77.560 82.563 43.952
252 1 1 0.0 76.639 82.978 44.962
253 1 1 0.0 76.983 82.847 46.342
254 1 1 0.0 76.018 83.147 47.351
255 1 1 0.0 78.455 81.921 48.095
256 1 1 0.0 77.640 82.517 49.104
257 1 1 0.0 77.949 82.318 50.485
258 1 1 0.0 77.067 82.811 51.494
259 1 1 0.0 79.198 81.107 52.237
260 1 1 0.0 78.524 81.859 53.246
261 1 1 0.0 78.785 81.601 54.627
262 1 1 0.0 78.025 82.265 55.636
263 1 1 0.0 79.757 80.157 56.380
264 1 1 0.0 79.252 81.033 57.389
265 1 1 0.0 71.414 73.998 0.032
266 1 1 0.0 71.148 74.252 1.413
267 1 1 0.0 71.920 73.601 2.422
268 1 1 0.0 70.151 75.678 3.165
269 1 1 0.0 70.671 74.812 4.174
270 1 1 0.0 70.463 75.115 5.555
271 1 1 0.0 71.084 74.318 6.564
272 1 1 0.0 69.783 76.717 7.308
273 1 1 0.0 70.112 75.761 8.317
274 1 1 0.0 69.971 76.101 9.698
275 1 1 0.0 70.414 75.193 10.707
276 1 1 0.0 69.637 77.809 11.450
277 1 1 0.0 69.762 76.806 12.459
278 1 1 0.0 69.694 77.168 13.840
279 1 1 0.0 69.940 76.188 14.849
280 1 1 0.0 69.720 78.907 15.593
281 1 1 0.0 69.635 77.901 16.602
282 1 1 0.0 69.644 78.268 17.983
283 1 1 0.0 69.681 77.259 18.992
284 1 1 0.0 70.029 79.965 19.735
285 1 1 0.0 69.738 78.998 20.744
286 1 1 0.0 69.822 79.356 22.125
287 1 1 0.0 69.650 78.360 23.134
288 1 1 0.0 70.550 80.936 23.878
289 1 1 0.0 70.065 80.050 24.887
290 1 1 0.0 70.221 80.383 26.267
291 1 1 0.0 69.847 79.444 27.276
292 1 1 0.0 71.260 81.778 28.020
293 1 1 0.0 70.602 81.012 29.029
294 1 1 0.0 70.824 81.305 30.410
295 1 1 0.0 70.264 80.464 31.419
296 1 1 0.0 72.129 82.456 32.162
297 1 1 0.0 71.327 81.842 33.171
298 1 1 0.0 71.605 82.083 34.552
299 1 1 0.0 70.883 81.376 35.561
300 1 1 0.0 73.120 82.939 36.305
301 1 1 0.0 72.208 82.504 37.314
302 1 1 0.0 72.530 82.682 38.695
303 1 1 0.0 71.677 82.140 39.704
304 1 1 0.0 74.189 83.206 40.447
305 1 1 0.0 73.206 82.969 41.456
306 1 1 0.0 73.558 83.077 42.837
307 1 1 0.0 72.612 82.723 43.846
308 1 1 0.0 75.290 83.247 44.590
309 1 1 0.0 74.280 83.218 45.599
310 1 1 0.0 74.646 83.251 46.980
311 1 1 0.0 73.647 83.100 47.989
312 1 1 0.0 76.375 83.060 48.732
313 1 1 0.0 75.381 83.240 49.741
314 1 1 0.0 75.747 83.197 51.122
315 1 1 0.0 74.738 83.255 52.131
316 1 1 0.0 77.399 82.651 52.875
317 1 1 0.0 76.464 83.034 53.884
318 1 1 0.0 76.812 82.915 55.265
319 1 1 0.0 75.837 83.182 56.274
320 1 1 0.0 78.316 82.040 57.017
321 1 1 0.0 73.494 72.859 0.669
322 1 1 0.0 73.144 72.971 2.050
323 1 1 0.0 74.123 72.722 3.059
324 1 1 0.0 71.625 73.820 3.803
325 1 1 0.0 72.471 73.267 4.812
326 1 1 0.0 72.151 73.450 6.192
327 1 1 0.0 73.057 73.003 7.202
328 1 1 0.0 70.841 74.594 7.945
329 1 1 0.0 71.554 73.878 8.954
330 1 1 0.0 71.279 74.123 10.335
331 1 1 0.0 72.073 73.499 11.344
332 1 1 0.0 70.233 75.513 12.087
333 1 1 0.0 70.783 74.666 13.097
334 1 1 0.0 70.564 74.962 14.477
335 1 1 0.0 71.213 74.187 15.486
336 1 1 0.0 69.829 76.538 16.230
337 1 1 0.0 70.191 75.595 17.239
338 1 1 0.0 70.039 75.930 18.620
339 1 1 0.0 70.513 75.038 19.629
340 1 1 0.0 69.646 77.625 20.372
341 1 1 0.0 69.805 76.627 21.381
342 1 1 0.0 69.725 76.986 22.762
343 1 1 0.0 70.004 76.015 23.771
344 1 1 0.0 69.691 78.726 24.515
345 1 1 0.0 69.641 77.717 25.524
346 1 1 0.0 69.636 78.085 26.905
347 1 1 0.0 69.709 77.077 27.914
348 1 1 0.0 69.963 79.794 28.657
349 1 1 0.0 69.705 78.817 29.666
350 1 1 0.0 69.777 79.177 31.047
351 1 1 0.0 69.639 78.177 32.056
352 1 1 0.0 70.449 80.782 32.800
353 1 1 0.0 69.995 79.880 33.809
354 1 1 0.0 70.140 80.218 35.190
355 1 1 0.0 69.799 79.267 36.199
356 1 1 0.0 71.130 81.649 36.942
357 1 1 0.0 70.499 80.860 37.951
358 1 1 0.0 70.711 81.160 39.332
359 1 1 0.0 70.180 80.301 40.341
360 1 1 0.0 71.975 82.356 41.085
361 1 1 0.0 71.194 81.714 42.094
362 1 1 0.0 71.464 81.965 43.475
363 1 1 0.0 70.767 81.233 44.484
364 1 1 0.0 72.948 82.873 45.227
365 1 1 0.0 72.052 82.406 46.236
366 1 1 0.0 72.367 82.596 47.617
367 1 1 0.0 71.534 82.024 48.626
368 1 1 0.0 74.007 83.177 49.370
369 1 1 0.0 73.034 82.906 50.379
370 1 1 0.0 73.381 83.026 51.759
371 1 1 0.0 72.448 82.640 52.768
372 1 1 0.0 75.106 83.256 53.512
373 1 1 0.0 74.098 83.193 54.521
374 1 1 0.0 74.463 83.238 55.902
375 1 1 0.0 73.470 83.053 56.911
376 1 1 0.0 76.197 83.106 57.654
377 1 1 0.0 74.855 72.660 0.297
378 1 1 0.0 75.862 72.742 1.306
379 1 1 0.0 75.498 72.690 2.687
380 1 1 0.0 76.488 72.892 3.696
381 1 1 0.0 73.761 72.791 4.440
382 1 1 0.0 74.763 72.662 5.449
383 1 1 0.0 74.396 72.687 6.830
384 1 1 0.0 75.407 72.681 7.839
385 1 1 0.0 72.718 73.146 8.582
386 1 1 0.0 73.672 72.812 9.591
387 1 1 0.0 73.318 72.912 10.972
388 1 1 0.0 74.305 72.697 11.981
389 1 1 0.0 71.771 73.708 12.725
390 1 1 0.0 72.635 73.185 13.734
391 1 1 0.0 72.309 73.356 15.115
392 1 1 0.0 73.231 72.941 16.124
393 1 1 0.0 70.960 74.454 16.867
394 1 1 0.0 71.697 73.763 17.876
395 1 1 0.0 71.414 73.998 19.257
396 1 1 0.0 72.230 73.402 20.266
397 1 1 0.0 70.321 75.352 21.010
398 1 1 0.0 70.900 74.524 22.019
399 1 1 0.0 70.671 74.812 23.400
400 1 1 0.0 71.346 74.060 24.409
401 1 1 0.0 69.881 76.362 25.152
402 1 1 0.0 70.276 75.432 26.161
403 1 1 0.0 70.112 75.761 27.542
404 1 1 0.0 70.617 74.886 28.551
405 1 1 0.0 69.660 77.442 29.295
406 1 1 0.0 69.854 76.450 30.304
407 1 1 0.0 69.762 76.806 31.684
408 1 1 0.0 70.075 75.845 32.694
409 1 1 0.0 69.667 78.543 33.437
410 1 1 0.0 69.652 77.533 34.446
411 1 1 0.0 69.635 77.901 35.827
412 1 1 0.0 69.743 76.896 36.836
413 1 1 0.0 69.902 79.620 37.579
414 1 1 0.0 69.678 78.635 38.589
415 1 1 0.0 69.738 78.998 39.969
416 1 1 0.0 69.635 77.993 40.978
417 1 1 0.0 70.354 80.625 41.722
418 1 1 0.0 69.931 79.707 42.731
419 1 1 0.0 70.065 80.050 44.112
420 1 1 0.0 69.756 79.088 45.121
421 1 1 0.0 71.004 81.514 45.864
422 1 1 0.0 70.401 80.704 46.873
423 1 1 0.0 70.602 81.012 48.254
424 1 1 0.0 70.102 80.134 49.263
425 1 1 0.0 71.824 82.250 50.007
426 1 1 0.0 71.066 81.582 51.016
427 1 1 0.0 71.327 81.842 52.397
428 1 1 0.0 70.656 81.087 53.406
429 1 1 0.0 72.779 82.801 54.149
430 1 1 0.0 71.899 82.304 55.158
431 1 1 0.0 72.208 82.504 56.539
432 1 1 0.0 71.395 81.904 57.548
433 1 1 0.0 79.267 74.907 0.191
434 1 1 0.0 77.174 73.156 0.935
435 1 1 0.0 78.045 73.669 1.944
436 1 1 0.0 77.740 73.463 3.325
437 1 1 0.0 78.542 74.077 4.334
438 1 1 0.0 76.133 72.797 5.077
439 1 1 0.0 77.091 73.118 6.086
440 1 1 0.0 76.750 72.980 7.467
441 1 1 0.0 77.662 73.415 8.476
442 1 1 0.0 75.039 72.661 9.220
443 1 1 0.0 76.043 72.777 10.229
444 1 1 0.0 75.681 72.712 11.609
445 1 1 0.0 76.663 72.949 12.619
446 1 1 0.0 73.941 72.754 13.362
447 1 1 0.0 74.947 72.660 14.371
448 1 1 0.0 74.580 72.672 15.752
449 1 1 0.0 75.590 72.700 16.761
450 1 1 0.0 72.886 73.071 17.505
451 1 1 0.0 73.851 72.772 18.514
452 1 1 0.0 73.494 72.859 19.894
453 1 1 0.0 74.488 72.679 20.903
454 1 1 0.0 71.920 73.601 21.647
455 1 1 0.0 72.802 73.108 22.656
456 1 1 0.0 72.471 73.267 24.037
457 1 1 0.0 73.406 72.885 25.046
458 1 1 0.0 71.084 74.318 25.789
459 1 1 0.0 71.845 73.654 26.798
460 1 1 0.0 71.554 73.878 28.179
461 1 1 0.0 72.389 73.311 29.188
462 1 1 0.0 70.414 75.193 29.932
463 1 1 0.0 71.021 74.386 30.941
464 1 1 0.0 70.783 74.666 32.322
465 1 1 0.0 71.483 73.938 33.331
466 1 1 0.0 69.940 76.188 34.074
467 1 1 0.0 70.367 75.272 35.083
468 1 1 0.0 70.191 75.595 36.464
469 1 1 0.0 70.726 74.738 37.473
470 1 1 0.0 69.681 77.259 38.217
471 1 1 0.0 69.910 76.275 39.226
472 1 1 0.0 69.805 76.627 40.607
473 1 1 0.0 70.151 75.678 41.616
474 1 1 0.0 69.650 78.360 42.359
475 1 1 0.0 69.670 77.350 43.368
476 1 1 0.0 69.641 77.717 44.749
477 1 1 0.0 69.783 76.717 45.758
478 1 1 0.0 69.847 79.444 46.502
479 1 1 0.0 69.658 78.452 47.511
480 1 1 0.0 69.705 78.817 48.892
481 1 1 0.0 69.637 77.809 49.901
482 1 1 0.0 70.264 80.464 50.644
483 1 1 0.0 69.874 79.532 51.653
484 1 1 0.0 69.995 79.880 53.034
485 1 1 0.0 69.720 78.907 54.043
486 1 1 0.0 70.883 81.376 54.787
487 1 1 0.0 70.308 80.545 55.796
488 1 1 0.0 70.499 80.860 57.176
489 1 1 0.0 80.165 77.102 0.828
490 1 1 0.0 79.045 74.614 1.572
491 1 1 0.0 79.605 75.455 2.581
492 1 1 0.0 79.420 75.137 3.962
493 1 1 0.0 79.874 76.039 4.971
494 1 1 0.0 78.264 73.836 5.714
495 1 1 0.0 78.986 74.543 6.724
496 1 1 0.0 78.739 74.270 8.104
497 1 1 0.0 79.370 75.059 9.113
498 1 1 0.0 77.340 73.237 9.857
499 1 1 0.0 78.192 73.779 10.866
500 1 1 0.0 77.894 73.563 12.247
501 1 1 0.0 78.675 74.205 13.256
502 1 1 0.0 76.311 72.842 13.999
503 1 1 0.0 77.257 73.196 15.008
504 1 1 0.0 76.921 73.046 16.389
505 1 1 0.0 77.818 73.512 17.398
506 1 1 0.0 75.223 72.668 18.142
507 1 1 0.0 76.222 72.818 19.151
508 1 1 0.0 75.862 72.742 20.532
509 1 1 0.0 76.836 73.012 21.541
510 1 1 0.0 74.123 72.722 22.284
511 1 1 0.0 75.131 72.663 23.293
512 1 1 0.0 74.763 72.662 24.674
513 1 1 0.0 75.772 72.726 25.683
514 1 1 0.0 73.057 73.003 26.427
515 1 1 0.0 74.032 72.737 27.436
516 1 1 0.0 73.672 72.812 28.817
517 1 1 0.0 74.672 72.666 29.826
518 1 1 0.0 72.073 73.499 30.569
519 1 1 0.0 72.972 73.037 31.578
520 1 1 0.0 72.635 73.185 32.959
521 1 1 0.0 73.583 72.835 33.968
522 1 1 0.0 71.213 74.187 34.712
523 1 1 0.0 71.996 73.549 35.721
524 1 1 0.0 71.697 73.763 37.102
525 1 1 0.0 72.552 73.225 38.111
526 1 1 0.0 70.513 75.038 38.854
527 1 1 0.0 71.148 74.252 39.863
528 1 1 0.0 70.900 74.524 41.244
529 1 1 0.0 71.625 73.820 42.253
530 1 1 0.0 70.004 76.015 42.997
531 1 1 0.0 70.463 75.115 44.006
532 1 1 0.0 70.276 75.432 45.386
533 1 1 0.0 70.841 74.594 46.395
534 1 1 0.0 69.709 77.077 47.139
535 1 1 0.0 69.971 76.101 48.148
536 1 1 0.0 69.854 76.450 49.529
537 1 1 0.0 70.233 75.513 50.538
538 1 1 0.0 69.639 78.177 51.281
539 1 1 0.0 69.694 77.168 52.291
540 1 1 0.0 69.652 77.533 53.671
541 1 1 0.0 69.829 76.538 54.680
542 1 1 0.0 69.799 79.267 55.424
543 1 1 0.0 69.644 78.268 56.433
544 1 1 0.0 80.093 76.741 2.209
545 1 1 0.0 80.230 77.742 3.218
546 1 1 0.0 80.202 77.375 4.599
547 1 1 0.0 79.729 75.701 6.352
548 1 1 0.0 80.071 76.652 7.361
549 1 1 0.0 79.968 76.299 8.742
550 1 1 0.0 80.191 77.284 9.751
551 1 1 0.0 79.159 74.759 10.494
552 1 1 0.0 79.689 75.618 11.503
553 1 1 0.0 79.515 75.294 12.884
554 1 1 0.0 79.938 76.212 13.893
555 1 1 0.0 78.405 73.954 14.637
556 1 1 0.0 79.102 74.686 15.646
557 1 1 0.0 78.865 74.404 17.027
558 1 1 0.0 79.468 75.215 18.036
559 1 1 0.0 77.502 73.323 18.779
560 1 1 0.0 78.335 73.895 19.788
561 1 1 0.0 78.045 73.669 21.169
562 1 1 0.0 78.803 74.337 22.178
563 1 1 0.0 76.488 72.892 22.922
564 1 1 0.0 77.421 73.279 23.931
565 1 1 0.0 77.091 73.118 25.311
566 1 1 0.0 77.970 73.615 26.321
567 1 1 0.0 75.407 72.681 27.064
568 1 1 0.0 76.400 72.866 28.073
569 1 1 0.0 76.043 72.777 29.454
570 1 1 0.0 77.006 73.081 30.463
571 1 1 0.0 74.305 72.697 31.206
572 1 1 0.0 75.315 72.673 32.216
573 1 1 0.0 74.947 72.660 33.596
574 1 1 0.0 75.953 72.758 34.605
575 1 1 0.0 73.231 72.941 35.349
576 1 1 0.0 74.214 72.709 36.358
577 1 1 0.0 73.851 72.772 37.739
578 1 1 0.0 74.855 72.660 38.748
579 1 1 0.0 72.230 73.402 39.491
580 1 1 0.0 73.144 72.971 40.500
581 1 1 0.0 72.802 73.108 41.881
582 1 1 0.0 73.761 72.791 42.890
583 1 1 0.0 71.346 74.060 43.634
584 1 1 0.0 72.151 73.450 44.643
585 1 1 0.0 71.845 73.654 46.024
586 1 1 0.0 72.718 73.146 47.033
587 1 1 0.0 70.617 74.886 47.776
588 1 1 0.0 71.279 74.123 48.785
589 1 1 0.0 71.021 74.386 50.166
590 1 1 0.0 71.771 73.708 51.175
591 1 1 0.0 70.075 75.845 51.919
592 1 1 0.0 70.564 74.962 52.928
593 1 1 0.0 70.367 75.272 54.309
594 1 1 0.0 70.960 74.454 55.318
595 1 1 0.0 69.743 76.896 56.061
596 1 1 0.0 70.039 75.930 57.070
597 1 1 0.0 80.132 76.921 11.132
598 1 1 0.0 80.234 77.926 12.141
599 1 1 0.0 80.219 77.559 13.521
600 1 1 0.0 79.805 75.869 15.274
601 1 1 0.0 80.113 76.831 16.283
602 1 1 0.0 80.022 76.475 17.664
603 1 1 0.0 80.211 77.467 18.673
604 1 1 0.0 79.267 74.907 19.416
605 1 1 0.0 79.768 75.785 20.425
606 1 1 0.0 79.605 75.455 21.806
607 1 1 0.0 79.996 76.386 22.815
608 1 1 0.0 78.542 74.077 23.559
609 1 1 0.0 79.213 74.832 24.568
610 1 1 0.0 78.986 74.543 25.949
611 1 1 0.0 79.561 75.374 26.958
612 1 1 0.0 77.662 73.415 27.701
613 1 1 0.0 78.474 74.015 28.710
614 1 1 0.0 78.192 73.779 30.091
615 1 1 0.0 78.926 74.473 31.100
616 1 1 0.0 76.663 72.949 31.844
617 1 1 0.0 77.582 73.368 32.853
618 1 1 0.0 77.257 73.196 34.234
619 1 1 0.0 78.119 73.723 35.243
620 1 1 0.0 75.590 72.700 35.986
621 1 1 0.0 76.576 72.920 36.995
622 1 1 0.0 76.222 72.818 38.376
623 1 1 0.0 77.174 73.156 39.385
624 1 1 0.0 74.488 72.679 40.129
625 1 1 0.0 75.498 72.690 41.138
626 1 1 0.0 75.131 72.663 42.519
627 1 1 0.0 76.133 72.797 43.528
628 1 1 0.0 73.406 72.885 44.271
629 1 1 0.0 74.396 72.687 45.280
630 1 1 0.0 74.032 72.737 46.661
631 1 1 0.0 75.039 72.661 47.670
632 1 1 0.0 72.389 73.311 48.414
633 1 1 0.0 73.318 72.912 49.423
634 1 1 0.0 72.972 73.037 50.803
635 1 1 0.0 73.941 72.754 51.813
636 1 1 0.0 71.483 73.938 52.556
637 1 1 0.0 72.309 73.356 53.565
638 1 1 0.0 71.996 73.549 54.946
639 1 1 0.0 72.886 73.071 55.955
640 1 1 0.0 70.726 74.738 56.699
641 1 1 0.0 80.165 77.102 20.054
642 1 1 0.0 80.230 77.742 22.444
643 1 1 0.0 79.874 76.039 24.196
644 1 1 0.0 80.149 77.011 25.205
645 1 1 0.0 80.071 76.652 26.586
646 1 1 0.0 80.225 77.650 27.595
647 1 1 0.0 79.370 75.059 28.339
648 1 1 0.0 79.840 75.954 29.348
649 1 1 0.0 79.689 75.618 30.729
650 1 1 0.0 80.047 76.563 31.738
651 1 1 0.0 78.675 74.205 32.481
652 1 1 0.0 79.319 74.983 33.490
653 1 1 0.0 79.102 74.686 34.871
654 1 1 0.0 79.648 75.536 35.880
655 1 1 0.0 77.818 73.512 36.624
656 1 1 0.0 78.609 74.140 37.633
657 1 1 0.0 78.335 73.895 39.013
658 1 1 0.0 79.045 74.614 40.022
659 1 1 0.0 76.836 73.012 40.766
660 1 1 0.0 77.740 73.463 41.775
661 1 1 0.0 77.421 73.279 43.156
662 1 1 0.0 78.264 73.836 44.165
663 1 1 0.0 75.772 72.726 44.908
664 1 1 0.0 76.750 72.980 45.918
665 1 1 0.0 76.400 72.866 47.298
666 1 1 0.0 77.340 73.237 48.307
667 1 1 0.0 74.672 72.666 49.051
668 1 1 0.0 75.681 72.712 50.060
669 1 1 0.0 75.315 72.673 51.441
670 1 1 0.0 76.311 72.842 52.450
671 1 1 0.0 73.583 72.835 53.193
672 1 1 0.0 74.580 72.672 54.202
673 1 1 0.0 74.214 72.709 55.583
674 1 1 0.0 75.223 72.668 56.592
675 1 1 0.0 72.552 73.225 57.336
676 1 1 0.0 80.191 77.284 28.976
677 1 1 0.0 80.234 77.926 31.366
678 1 1 0.0 79.938 76.212 33.118
679 1 1 0.0 80.179 77.193 34.127
680 1 1 0.0 80.113 76.831 35.508
681 1 1 0.0 80.233 77.834 36.517
682 1 1 0.0 79.468 75.215 37.261
683 1 1 0.0 79.907 76.125 38.270
684 1 1 0.0 79.768 75.785 39.651
685 1 1 0.0 80.093 76.741 40.660
686 1 1 0.0 78.803 74.337 41.403
687 1 1 0.0 79.420 75.137 42.412
688 1 1 0.0 79.213 74.832 43.793
689 1 1 0.0 79.729 75.701 44.802
690 1 1 0.0 77.970 73.615 45.546
691 1 1 0.0 78.739 74.270 46.555
692 1 1 0.0 78.474 74.015 47.936
693 1 1 0.0 79.159 74.759 48.945
694 1 1 0.0 77.006 73.081 49.688
695 1 1 0.0 77.894 73.563 50.697
696 1 1 0.0 77.582 73.368 52.078
697 1 1 0.0 78.405 73.954 53.087
698 1 1 0.0 75.953 72.758 53.831
699 1 1 0.0 76.921 73.046 54.840
700 1 1 0.0 76.576 72.920 56.221
701 1 1 0.0 77.502 73.323 57.230
702 1 1 0.0 80.211 77.467 37.898
703 1 1 0.0 79.996 76.386 42.041
704 1 1 0.0 80.202 77.375 43.050
705 1 1 0.0 80.149 77.011 44.430
706 1 1 0.0 79.561 75.374 46.183
707 1 1 0.0 79.968 76.299 47.192
708 1 1 0.0 79.840 75.954 48.573
709 1 1 0.0 80.132 76.921 49.582
710 1 1 0.0 78.926 74.473 50.325
711 1 1 0.0 79.515 75.294 51.335
712 1 1 0.0 79.319 74.983 52.715
713 1 1 0.0 79.805 75.869 53.724
714 1 1 0.0 78.119 73.723 54.468
715 1 1 0.0 78.865 74.404 55.477
716 1 1 0.0 78.609 74.140 56.858
717 1 1 0.0 80.225 77.650 46.820
718 1 1 0.0 80.047 76.563 50.963
719 1 1 0.0 80.219 77.559 51.972
720 1 1 0.0 80.179 77.193 53.353
721 1 1 0.0 79.648 75.536 55.105
722 1 1 0.0 80.022 76.475 56.114
723 1 1 0.0 79.907 76.125 57.495
724 1 1 0.0 80.233 77.834 55.743
725 1 1 0.0 80.209 78.477 58.132
726 1 1 0.0 80.015 79.469 59.141
727 1 1 0.0 80.217 78.386 63.284
728 1 1 0.0 79.455 80.726 58.770
729 1 1 0.0 78.848 81.533 59.779
730 1 1 0.0 80.107 79.113 60.522
731 1 1 0.0 79.795 80.073 61.531
732 1 1 0.0 79.929 79.731 62.912
733 1 1 0.0 79.503 80.647 63.921
734 1 1 0.0 80.234 78.018 64.665
735 1 1 0.0 80.127 79.023 65.674
736 1 1 0.0 80.188 78.660 67.055
737 1 1 0.0 79.959 79.644 68.064
738 1 1 0.0 80.199 78.569 72.206
739 1 1 0.0 77.480 82.608 58.026
740 1 1 0.0 77.796 82.420 59.407
741 1 1 0.0 76.898 82.882 60.416
742 1 1 0.0 79.087 81.253 61.160
743 1 1 0.0 78.386 81.981 62.169
744 1 1 0.0 78.657 81.732 63.549
745 1 1 0.0 77.873 82.370 64.559
746 1 1 0.0 79.678 80.323 65.302
747 1 1 0.0 79.143 81.181 66.311
748 1 1 0.0 79.356 80.881 67.692
749 1 1 0.0 78.722 81.667 68.701
750 1 1 0.0 80.064 79.292 69.445
751 1 1 0.0 79.718 80.241 70.454
752 1 1 0.0 79.865 79.903 71.834
753 1 1 0.0 79.407 80.804 72.843
754 1 1 0.0 80.229 78.202 73.587
755 1 1 0.0 80.087 79.202 74.596
756 1 1 0.0 80.160 78.842 75.977
757 1 1 0.0 79.898 79.818 76.986
758 1 1 0.0 80.232 78.110 78.738
759 1 1 0.0 80.175 78.751 81.128
760 1 1 0.0 75.198 83.253 58.664
761 1 1 0.0 75.564 83.222 60.044
762 1 1 0.0 74.554 83.245 61.053
763 1 1 0.0 77.235 82.734 61.797
764 1 1 0.0 76.287 83.084 62.806
765 1 1 0.0 76.639 82.978 64.187
766 1 1 0.0 75.656 83.210 65.196
767 1 1 0.0 78.172 82.155 65.939
768 1 1 0.0 77.317 82.693 66.948
769 1 1 0.0 77.640 82.517 68.329
770 1 1 0.0 76.726 82.947 69.338
771 1 1 0.0 78.970 81.395 70.082
772 1 1 0.0 78.244 82.099 71.091
773 1 1 0.0 78.524 81.859 72.472
774 1 1 0.0 77.718 82.469 73.481
775 1 1 0.0 79.593 80.487 74.224
776 1 1 0.0 79.029 81.325 75.233
777 1 1 0.0 79.252 81.033 76.614
778 1 1 0.0 78.591 81.796 77.623
779 1 1 0.0 80.015 79.469 78.367
780 1 1 0.0 79.636 80.405 79.376
781 1 1 0.0 79.795 80.073 80.757
782 1 1 0.0 79.305 80.957 81.766
783 1 1 0.0 80.217 78.386 82.509
784 1 1 0.0 80.040 79.380 83.518
785 1 1 0.0 80.127 79.023 84.899
786 1 1 0.0 79.831 79.989 85.908
787 1 1 0.0 80.224 78.294 87.661
788 1 1 0.0 80.144 78.932 90.051
789 1 1 0.0 73.826 83.142 58.292
790 1 1 0.0 72.863 82.837 59.301
791 1 1 0.0 73.206 82.969 60.682
792 1 1 0.0 72.287 82.550 61.691
793 1 1 0.0 74.922 83.259 62.434
794 1 1 0.0 73.916 83.160 63.443
795 1 1 0.0 74.280 83.218 64.824
796 1 1 0.0 73.294 82.999 65.833
797 1 1 0.0 76.018 83.147 66.577
798 1 1 0.0 75.014 83.259 67.586
799 1 1 0.0 75.381 83.240 68.967
800 1 1 0.0 74.371 83.229 69.976
801 1 1 0.0 77.067 82.811 70.719
802 1 1 0.0 76.108 83.128 71.728
803 1 1 0.0 76.464 83.034 73.109
804 1 1 0.0 75.473 83.232 74.118
805 1 1 0.0 78.025 82.265 74.862
806 1 1 0.0 77.151 82.773 75.871
807 1 1 0.0 77.480 82.608 77.251
808 1 1 0.0 76.552 83.006 78.260
809 1 1 0.0 78.848 81.533 79.004
810 1 1 0.0 78.099 82.211 80.013
811 1 1 0.0 78.386 81.981 81.394
812 1 1 0.0 77.560 82.563 82.403
813 1 1 0.0 79.503 80.647 83.146
814 1 1 0.0 78.910 81.465 84.156
815 1 1 0.0 79.143 81.181 85.536
816 1 1 0.0 78.455 81.921 86.545
817 1 1 0.0 79.959 79.644 87.289
818 1 1 0.0 79.548 80.567 88.298
819 1 1 0.0 79.718 80.241 89.679
820 1 1 0.0 79.198 81.107 90.688
821 1 1 0.0 80.199 78.569 91.431
822 1 1 0.0 79.988 79.557 92.440
823 1 1 0.0 80.087 79.202 93.821
824 1 1 0.0 79.757 80.157 94.830
825 1 1 0.0 80.209 78.477 96.583
826 1 1 0.0 80.232 78.110 97.964
827 1 1 0.0 80.107 79.113 98.973
828 1 1 0.0 80.234 78.018 103.115
829 1 1 0.0 70.029 79.965 58.186
830 1 1 0.0 71.677 82.140 58.929
831 1 1 0.0 70.943 81.446 59.938
832 1 1 0.0 71.194 81.714 61.319
833 1 1 0.0 70.550 80.936 62.328
834 1 1 0.0 72.612 82.723 63.072
835 1 1 0.0 71.750 82.196 64.081
836 1 1 0.0 72.052 82.406 65.461
837 1 1 0.0 71.260 81.778 66.470
838 1 1 0.0 73.647 83.100 67.214
839 1 1 0.0 72.695 82.763 68.223
840 1 1 0.0 73.034 82.906 69.604
841 1 1 0.0 72.129 82.456 70.613
842 1 1 0.0 74.738 83.255 71.356
843 1 1 0.0 73.737 83.122 72.365
844 1 1 0.0 74.098 83.193 73.746
845 1 1 0.0 73.120 82.939 74.755
846 1 1 0.0 75.837 83.182 75.499
847 1 1 0.0 74.830 83.258 76.508
848 1 1 0.0 75.198 83.253 77.889
849 1 1 0.0 74.189 83.206 78.898
850 1 1 0.0 76.898 82.882 79.641
851 1 1 0.0 75.928 83.165 80.650
852 1 1 0.0 76.287 83.084 82.031
853 1 1 0.0 75.290 83.247 83.040
854 1 1 0.0 77.873 82.370 83.784
855 1 1 0.0 76.983 82.847 84.793
856 1 1 0.0 77.317 82.693 86.174
857 1 1 0.0 76.375 83.060 87.183
858 1 1 0.0 78.722 81.667 87.926
859 1 1 0.0 77.949 82.318 88.935
860 1 1 0.0 78.244 82.099 90.316
861 1 1 0.0 77.399 82.651 91.325
862 1 1 0.0 79.407 80.804 92.069
863 1 1 0.0 78.785 81.601 93.078
864 1 1 0.0 79.029 81.325 94.459
865 1 1 0.0 78.316 82.040 95.468
866 1 1 0.0 79.898 79.818 96.211
867 1 1 0.0 79.455 80.726 97.220
868 1 1 0.0 79.636 80.405 98.601
869 1 1 0.0 79.087 81.253 99.610
870 1 1 0.0 80.175 78.751 100.354
871 1 1 0.0 79.929 79.731 101.363
872 1 1 0.0 80.040 79.380 102.743
873 1 1 0.0 79.678 80.323 103.753
874 1 1 0.0 80.188 78.660 105.505
875 1 1 0.0 80.224 78.294 106.886
876 1 1 0.0 80.064 79.292 107.895
877 1 1 0.0 80.229 78.202 112.037
878 1 1 0.0 69.678 78.635 57.814
879 1 1 0.0 69.646 77.625 58.823
880 1 1 0.0 70.180 80.301 59.566
881 1 1 0.0 69.822 79.356 60.575
882 1 1 0.0 69.931 79.707 61.956
883 1 1 0.0 69.691 78.726 62.965
884 1 1 0.0 70.767 81.233 63.709
885 1 1 0.0 70.221 80.383 64.718
886 1 1 0.0 70.401 80.704 66.099
887 1 1 0.0 69.963 79.794 67.108
888 1 1 0.0 71.534 82.024 67.851
889 1 1 0.0 70.824 81.305 68.860
890 1 1 0.0 71.066 81.582 70.241
891 1 1 0.0 70.449 80.782 71.250
892 1 1 0.0 72.448 82.640 71.994
893 1 1 0.0 71.605 82.083 73.003
894 1 1 0.0 71.899 82.304 74.384
895 1 1 0.0 71.130 81.649 75.393
896 1 1 0.0 73.470 83.053 76.136
897 1 1 0.0 72.530 82.682 77.145
898 1 1 0.0 72.863 82.837 78.526
899 1 1 0.0 71.975 82.356 79.535
900 1 1 0.0 74.554 83.245 80.279
901 1 1 0.0 73.558 83.077 81.288
902 1 1 0.0 73.916 83.160 82.668
903 1 1 0.0 72.948 82.873 83.678
904 1 1 0.0 75.656 83.210 84.421
905 1 1 0.0 74.646 83.251 85.430
906 1 1 0.0 75.014 83.259 86.811
907 1 1 0.0 74.007 83.177 87.820
908 1 1 0.0 76.726 82.947 88.564