ITEM: TIMESTEP
2337933
ITEM: NUMBER OF ATOMS
5816
ITEM: BOX BOUNDS pp pp pp
0.0000000000000000e+00 1.5000000000000000e+02
0.0000000000000000e+00 1.5000000000000000e+02
0.0000000000000000e+00 2.5886599999999999e+02
ITEM: ATOMS id element type x y z 
128 C 1 73.3371 67.7863 7.56976 
138 C 1 72.0567 68.4249 3.50845 
139 C 1 72.4762 68.0933 4.82785 
140 C 1 73.882 67.7624 5.13903 
141 C 1 74.2739 67.6697 6.47842 
148 C 1 72.5435 68.2177 1.08612 
149 C 1 72.9572 68.1335 2.42619 
150 C 1 74.3342 67.7579 2.71926 
151 C 1 74.7858 67.7047 4.03374 
162 C 1 74.7625 67.7013 0.298363 
127 C 1 72.0181 68.2316 7.30031 
126 C 1 71.6273 68.4879 5.9212 
142 C 1 75.651 67.6667 6.73799 
152 C 1 76.2087 67.8262 4.29887 
153 C 1 76.5998 67.892 5.69449 
163 C 1 75.227 67.6746 1.63314 
164 C 1 76.6525 67.7767 1.89845 
165 C 1 77.1168 68.0291 3.22517 
175 C 1 77.4984 68.1465 0.81949 
154 C 1 77.9467 68.3856 5.9358 
155 C 1 78.3674 68.5723 7.28988 
143 C 1 76.1181 67.6867 8.05998 
166 C 1 78.427 68.5308 3.475 
98 C 1 67.9284 73.6189 5.84307 
99 C 1 67.9375 73.1097 7.15493 
109 C 1 67.8307 74.5936 3.11385 
110 C 1 68.1328 73.233 3.46071 
111 C 1 68.2656 72.7344 4.77111 
119 C 1 67.9154 74.094 0.800365 
120 C 1 68.2054 72.7514 1.07482 
121 C 1 68.5115 72.4317 2.40637 
100 C 1 68.3684 71.8109 7.446 
112 C 1 68.6899 71.3932 5.06721 
147 C 1 71.1909 68.8 0.840077 
113 C 1 68.854 70.9155 6.40609 
122 C 1 69.0419 71.1415 2.72641 
137 C 1 70.8276 69.0348 3.26766 
114 C 1 69.7218 69.8187 6.69617 
123 C 1 69.2191 70.6598 4.02463 
124 C 1 70.0413 69.5485 4.31094 
125 C 1 70.3889 69.1793 5.62211 
134 C 1 69.2641 70.7312 0.26365 
135 C 1 69.5145 70.3383 1.64081 
136 C 1 70.4987 69.3695 1.92753 
176 C 1 78.7849 68.8007 1.08384 
167 C 1 78.8521 68.7644 4.8406 
177 C 1 79.1789 69.0495 2.40895 
156 C 1 79.5394 69.3524 7.53706 
168 C 1 80.0041 69.5164 5.10465 
169 C 1 80.2112 69.9449 6.4174 
178 C 1 80.2686 69.8997 2.64303 
179 C 1 80.7102 70.1702 4.03528 
186 C 1 80.5922 70.2406 0.271004 
187 C 1 80.8379 70.6929 1.57336 
170 C 1 81.0961 71.0583 6.66811 
180 C 1 81.4156 71.3849 4.24036 
171 C 1 81.3338 71.4803 8.04899 
181 C 1 81.741 71.748 5.58471 
182 C 1 82.1766 73.0892 5.87605 
183 C 1 82.2938 73.5484 7.21533 
188 C 1 81.5121 71.854 1.79485 
189 C 1 81.687 72.2964 3.15947 
190 C 1 82.0667 73.5861 3.44853 
191 C 1 82.2524 74.046 4.78039 
193 C 1 81.898 72.7776 0.770878 
194 C 1 82.1563 74.1201 1.05736 
195 C 1 82.1023 74.5485 2.40519 
184 C 1 82.6242 74.8984 7.47781 
97 C 1 67.7486 75.045 5.60171 
108 C 1 67.8354 75.1075 1.7953 
84 C 1 68.2271 77.8157 5.14535 
85 C 1 67.9841 77.3095 6.42744 
86 C 1 67.6297 75.9718 6.67971 
94 C 1 67.9356 77.3735 2.7098 
95 C 1 67.9077 76.8752 4.08305 
96 C 1 67.8157 75.5072 4.24928 
106 C 1 68.0051 76.8969 0.271015 
107 C 1 67.8713 76.5063 1.60286 
72 C 1 68.2369 78.2053 7.49459 
87 C 1 67.6313 75.4688 7.99758 
93 C 1 68.5676 78.6312 2.39794 
92 C 1 68.7343 79.0559 1.05334 
83 C 1 68.8264 79.0553 4.81246 
71 C 1 69.0345 79.4336 7.22017 
69 C 1 70.3611 80.8658 5.60134 
70 C 1 69.3961 79.8027 5.86708 
80 C 1 70.4596 80.7066 1.84031 
81 C 1 70.0587 80.4141 3.18195 
82 C 1 69.0965 79.4158 3.47806 
91 C 1 69.6949 80.1831 0.780392 
68 C 1 70.8289 80.9969 4.21425 
59 C 1 70.8178 80.9283 8.01114 
14 C 1 80.9196 79.301 5.89201 
15 C 1 80.5513 79.5693 7.17278 
16 C 1 79.5086 80.5191 7.43375 
26 C 1 80.4858 79.6189 3.47341 
27 C 1 80.2671 79.9728 4.8014 
36 C 1 80.2865 80.1474 1.06437 
37 C 1 79.9206 80.3447 2.41219 
28 C 1 79.1349 80.8769 5.03212 
29 C 1 78.7857 81.1266 6.36589 
38 C 1 78.8034 81.1797 2.6911 
35 C 1 81.2892 79.091 0.756741 
25 C 1 81.4158 78.5617 3.21499 
13 C 1 81.7096 78.1325 5.65141 
5 C 1 82.4713 75.851 6.34935 
6 C 1 82.0427 77.2225 6.68275 
11 C 1 82.2695 76.4017 4.02026 
12 C 1 81.9191 77.7565 4.27619 
22 C 1 82.1379 76.4068 0.267685 
23 C 1 82.0836 76.9234 1.61426 
24 C 1 81.7293 78.2776 1.84045 
192 C 1 82.3143 75.4222 5.06101 
196 C 1 82.2386 75.9795 2.6717 
7 C 1 81.7566 77.6319 8.00044 
58 C 1 71.2292 81.3128 6.6864 
79 C 1 71.6717 81.3823 1.59893 
67 C 1 72.1338 81.5976 4.02651 
43 C 1 74.8188 82.1909 7.22235 
44 C 1 73.4408 81.9629 7.49522 
54 C 1 74.7966 82.3624 3.49721 
55 C 1 74.3484 82.2546 4.80703 
56 C 1 72.9792 81.9963 5.13733 
57 C 1 72.4988 81.8604 6.4222 
64 C 1 74.3296 82.3101 1.0769 
65 C 1 73.8429 82.1887 2.44626 
66 C 1 72.485 81.7791 2.67993 
78 C 1 72.0614 81.6633 0.267678 
39 C 1 78.4007 81.4875 4.0007 
30 C 1 77.5347 81.7034 6.67718 
40 C 1 77.0657 82.0207 4.2298 
41 C 1 76.679 82.0803 5.58803 
42 C 1 75.2816 82.1945 5.86883 
50 C 1 78.3625 81.4598 0.267801 
51 C 1 77.9969 81.5827 1.58635 
52 C 1 76.6173 82.0577 1.82742 
53 C 1 76.1422 82.2008 3.17309 
63 C 1 75.702 82.234 0.779813 
31 C 1 77.0668 81.9248 8.00251 
118 C 1 72.924 67.8877 9.98287 
129 C 1 73.8251 67.661 8.90367 
345 C 1 72.9984 67.953 13.7422 
346 C 1 74.3471 67.6463 13.9621 
357 C 1 73.3567 67.7081 11.3604 
344 C 1 72.4709 68.0502 12.4387 
358 C 1 74.7564 67.5285 11.5276 
347 C 1 74.8415 67.7434 15.2847 
117 C 1 71.6813 68.5592 9.64403 
334 C 1 72.131 68.3675 14.799 
343 C 1 71.2377 68.6556 12.075 
335 C 1 72.6227 68.2265 16.144 
116 C 1 71.2042 68.7343 8.29551 
359 C 1 75.2541 67.5641 12.9037 
130 C 1 75.2012 67.6532 9.10567 
131 C 1 75.7225 67.7263 10.4894 
132 C 1 77.0334 68.0697 10.7433 
144 C 1 77.4681 68.2105 8.32945 
348 C 1 76.218 67.6838 15.584 
360 C 1 76.6378 67.7022 13.1331 
361 C 1 77.1552 67.9588 14.442 
371 C 1 77.4081 68.1367 12.0678 
145 C 1 77.8596 68.472 9.70252 
362 C 1 78.3781 68.5712 14.7763 
76 C 1 67.8809 74.507 10.5719 
88 C 1 67.8171 74.0351 8.19821 
89 C 1 67.9398 73.5913 9.52765 
305 C 1 67.7319 74.4757 14.4903 
306 C 1 68.0824 73.1479 14.7267 
315 C 1 67.9611 74.1139 11.9838 
316 C 1 68.2421 72.6936 12.3196 
317 C 1 68.4426 72.2389 13.6656 
90 C 1 68.2589 72.2518 9.9177 
329 C 1 68.4815 71.8598 11.2315 
101 C 1 68.6046 71.378 8.81695 
307 C 1 68.1411 72.6565 16.0867 
115 C 1 70.0759 69.5785 8.09072 
318 C 1 68.9557 70.94 13.9126 
333 C 1 70.9242 68.9159 14.4536 
104 C 1 70.8947 69.0379 10.7008 
319 C 1 69.2762 70.5912 15.2595 
102 C 1 69.3529 70.1715 9.13988 
103 C 1 69.7193 69.841 10.4743 
320 C 1 70.1348 69.4971 15.5123 
330 C 1 69.1467 70.5962 11.5435 
331 C 1 69.4621 70.1294 12.8507 
332 C 1 70.4551 69.0896 13.1532 
363 C 1 78.7996 68.7921 16.1236 
372 C 1 78.6556 68.8459 12.4166 
146 C 1 79.1123 68.9966 9.96614 
373 C 1 79.1414 69.1336 13.7009 
157 C 1 79.943 69.5632 8.8712 
158 C 1 80.7888 70.7192 9.11595 
374 C 1 80.2717 69.9314 13.978 
375 C 1 80.4916 70.2909 15.3199 
381 C 1 79.4382 69.3292 11.2812 
382 C 1 80.5275 70.2641 11.4883 
383 C 1 80.8423 70.6488 12.906 
159 C 1 81.1029 71.0552 10.4584 
376 C 1 81.3427 71.3401 15.6034 
384 C 1 81.6029 71.8006 13.196 
160 C 1 81.7474 72.2483 10.81 
172 C 1 81.9827 72.6662 8.26698 
173 C 1 82.1062 73.0979 9.63199 
174 C 1 82.4434 74.4525 9.9583 
385 C 1 81.7067 72.242 14.5876 
386 C 1 82.1716 73.5834 14.8109 
389 C 1 81.9677 72.6775 12.1584 
390 C 1 82.4221 73.9584 12.3829 
391 C 1 82.4023 74.4617 13.6948 
217 C 1 82.4672 74.9408 11.2831 
387 C 1 82.2586 73.9959 16.1206 
304 C 1 67.8584 75.0079 13.1203 
73 C 1 68.0814 77.7387 8.80636 
74 C 1 67.7601 76.4017 9.07777 
75 C 1 67.7407 75.9049 10.4336 
290 C 1 68.0333 77.2931 13.9184 
291 C 1 67.8504 76.8317 15.2545 
292 C 1 67.6855 75.4406 15.5263 
302 C 1 67.9604 76.8489 11.4811 
303 C 1 67.8681 76.3781 12.8088 
301 C 1 68.4431 78.1559 11.2068 
62 C 1 68.5435 78.5565 9.83514 
289 C 1 68.6306 78.5619 13.6599 
279 C 1 68.8672 78.9061 16.0678 
288 C 1 68.8529 78.9449 12.3068 
278 C 1 69.1124 79.3291 14.7215 
48 C 1 70.0736 80.3001 10.6599 
60 C 1 69.6876 80.0987 8.25868 
61 C 1 69.3681 79.6942 9.56115 
276 C 1 70.356 80.6905 13.1219 
277 C 1 69.9928 80.4096 14.4472 
287 C 1 69.7494 80.0094 12.0356 
264 C 1 70.751 80.8861 15.5506 
47 C 1 71.1824 81.147 10.4345 
10 C 1 79.8919 80.2301 9.89323 
222 C 1 80.5053 79.5625 14.7399 
232 C 1 80.2314 79.9144 12.2657 
233 C 1 79.8379 80.2009 13.6094 
245 C 1 79.5388 80.515 11.2162 
9 C 1 80.8164 79.2013 9.65769 
17 C 1 79.2009 80.8488 8.83379 
223 C 1 80.1312 79.7885 16.0287 
8 C 1 81.0696 78.8809 8.31439 
231 C 1 81.1613 78.8593 12.0498 
234 C 1 78.7555 81.0558 13.8976 
4 C 1 81.325 78.4159 10.7156 
221 C 1 81.4338 78.5641 14.5057 
220 C 1 81.6955 78.0977 13.1591 
219 C 1 82.1118 76.772 12.8421 
218 C 1 82.2391 76.3241 11.511 
392 C 1 82.2855 75.908 14.0021 
1 C 1 82.4307 75.3583 8.78834 
2 C 1 82.0418 76.7006 9.05979 
3 C 1 81.9202 77.2113 10.4086 
207 C 1 82.2546 76.3286 15.352 
208 C 1 81.7971 77.6481 15.6036 
251 C 1 74.2466 82.1011 16.1444 
275 C 1 71.5719 81.4368 12.8688 
46 C 1 71.6956 81.357 9.08376 
263 C 1 71.9117 81.6934 15.3374 
274 C 1 72.0046 81.5825 11.5173 
34 C 1 73.8175 82.183 9.93156 
261 C 1 73.7752 82.0915 13.6744 
260 C 1 74.252 82.175 12.3951 
273 C 1 73.3375 82.0687 11.2835 
262 C 1 72.3374 81.9144 14.0336 
45 C 1 72.9334 81.9285 8.81408 
250 C 1 74.7063 82.0948 14.7635 
259 C 1 75.6688 82.2296 11.9756 
32 C 1 75.6955 82.1533 8.31232 
248 C 1 76.616 81.9362 13.0759 
33 C 1 75.1769 82.2789 9.59913 
20 C 1 76.1391 82.2048 10.6661 
236 C 1 76.9556 81.7215 15.4952 
246 C 1 78.3683 81.2929 11.4639 
249 C 1 76.1011 82.0062 14.4146 
19 C 1 77.5343 81.7637 10.4287 
235 C 1 78.2714 81.2605 15.215 
18 C 1 77.9778 81.6414 9.09933 
247 C 1 77.9512 81.4775 12.8327 
314 C 1 72.9887 68.0813 21.1886 
324 C 1 73.4489 67.9122 18.7914 
325 C 1 73.9546 67.7688 20.1014 
337 C 1 74.3371 67.7325 17.7361 
540 C 1 72.4739 68.0436 23.54 
553 C 1 73.414 67.8194 22.5159 
554 C 1 74.7835 67.5963 22.8402 
336 C 1 73.9345 67.834 16.3442 
323 C 1 72.1604 68.4056 18.5185 
313 C 1 71.6235 68.4367 20.8965 
322 C 1 71.7116 68.5911 17.2063 
539 C 1 71.2104 68.5817 23.321 
555 C 1 75.2218 67.4969 24.1975 
326 C 1 75.3072 67.6808 20.3748 
327 C 1 75.7417 67.696 21.7324 
328 C 1 77.1219 67.9865 21.9759 
338 C 1 75.7055 67.7576 17.9815 
339 C 1 76.2586 67.7727 19.2691 
340 C 1 77.6135 68.1392 19.5592 
349 C 1 76.7061 67.7983 16.9643 
567 C 1 77.4745 68.1277 23.3137 
341 C 1 77.9906 68.3084 20.9317 
350 C 1 78.0661 68.1858 17.2059 
351 C 1 78.4442 68.5624 18.5354 
272 C 1 67.7722 74.4198 21.9558 
284 C 1 67.7662 74.0351 19.5663 
285 C 1 67.8416 73.5074 20.8933 
294 C 1 67.7524 73.6336 17.1159 
295 C 1 67.8378 73.1292 18.4686 
511 C 1 67.9424 74.0106 23.3039 
512 C 1 68.1763 72.6158 23.5343 
286 C 1 68.2308 72.1755 21.1197 
525 C 1 68.3969 71.7034 22.4809 
296 C 1 68.472 71.7975 18.7428 
308 C 1 68.6881 71.3699 16.2552 
297 C 1 68.6197 71.3212 20.0526 
312 C 1 71.2896 68.7748 19.5678 
309 C 1 68.9533 70.9721 17.6651 
300 C 1 70.8082 68.8884 21.9551 
526 C 1 69.1756 70.5215 22.7447 
298 C 1 69.4385 70.1851 20.2779 
299 C 1 69.7124 69.747 21.6372 
310 C 1 69.8061 69.8146 17.9101 
311 C 1 70.1208 69.527 19.2799 
321 C 1 70.5339 69.2486 16.8669 
527 C 1 69.4924 70.225 24.0983 
568 C 1 78.743 68.7615 23.5839 
342 C 1 79.0683 69.173 21.2107 
352 C 1 79.5931 69.3187 18.7774 
353 C 1 79.8983 69.6065 20.1443 
365 C 1 80.3478 69.762 17.7008 
577 C 1 79.4921 69.4193 22.5236 
578 C 1 80.5262 70.2727 22.788 
579 C 1 80.8936 70.4907 24.2092 
354 C 1 80.853 70.5826 20.3648 
364 C 1 79.9753 69.5611 16.3949 
355 C 1 81.0369 71.0065 21.7397 
366 C 1 81.2385 70.8573 17.9656 
367 C 1 81.447 71.3029 19.3307 
377 C 1 81.618 71.7391 16.9277 
356 C 1 81.7475 72.1574 22.0234 
368 C 1 81.9222 72.5858 19.6103 
369 C 1 82.0728 73.0959 20.9943 
370 C 1 82.3268 74.5034 21.1993 
378 C 1 82.0685 73.0705 17.1968 
379 C 1 82.2625 73.5166 18.5344 
585 C 1 81.8551 72.6463 23.3906 
586 C 1 82.1664 74.0047 23.5833 
413 C 1 82.2192 74.9831 22.5198 
380 C 1 82.3069 74.9066 18.7786 
293 C 1 67.6447 75.0474 16.8482 
270 C 1 67.8756 76.3296 20.3343 
271 C 1 67.7458 75.8292 21.6462 
281 C 1 68.0832 77.2858 17.664 
282 C 1 67.7022 75.9308 17.9599 
283 C 1 67.7205 75.4521 19.2787 
498 C 1 67.8903 76.8091 22.7858 
499 C 1 67.8432 76.2884 24.1594 
269 C 1 68.1242 77.6598 20.1254 
268 C 1 68.3679 78.1404 18.7626 
280 C 1 68.1522 77.7204 16.3142 
497 C 1 68.3373 78.1688 22.5226 
258 C 1 68.5507 78.5229 21.1731 
484 C 1 68.7039 79.0175 23.6116 
267 C 1 69.0654 79.3847 18.4907 
244 C 1 69.9574 80.2833 22.0021 
256 C 1 69.5582 80.0421 19.6297 
257 C 1 69.261 79.7032 20.9635 
265 C 1 70.3253 80.6723 16.8382 
266 C 1 69.3772 79.6551 17.1224 
483 C 1 69.5917 80.0209 23.2894 
255 C 1 70.7369 80.8974 19.3212 
254 C 1 71.0679 81.2137 17.9465 
243 C 1 71.0854 81.1138 21.7791 
242 C 1 71.5157 81.2438 20.405 
206 C 1 79.9922 80.5182 21.143 
211 C 1 80.4726 79.6425 18.4778 
212 C 1 79.4223 80.5598 18.7457 
428 C 1 80.295 80.1925 23.5577 
441 C 1 79.6384 80.8026 22.4891 
210 C 1 80.8179 79.2681 17.1217 
224 C 1 79.0964 80.7067 16.3224 
205 C 1 80.8067 79.3086 20.938 
427 C 1 81.1124 78.9774 23.3309 
213 C 1 79.138 81.0143 20.0871 
204 C 1 81.0029 78.8549 19.5867 
225 C 1 78.6816 81.068 17.6309 
200 C 1 81.3715 78.594 22.0116 
209 C 1 81.71 78.1031 16.9297 
203 C 1 81.7165 77.6795 19.3302 
199 C 1 81.9768 77.2741 21.6871 
197 C 1 82.3282 75.3831 20.0996 
198 C 1 82.0542 76.8138 20.401 
201 C 1 82.2879 75.886 17.7506 
202 C 1 81.9767 77.2383 18.0619 
414 C 1 82.0025 76.3324 22.8433 
415 C 1 81.8575 76.8031 24.1738 
388 C 1 82.3402 75.3937 16.3973 
471 C 1 71.5496 81.3315 24.1717 
470 C 1 71.9517 81.6065 22.822 
230 C 1 73.7515 81.9725 21.2018 
240 C 1 73.3337 81.9342 18.8203 
241 C 1 72.8593 81.7092 20.1227 
253 C 1 72.4106 81.7354 17.7103 
456 C 1 74.244 82.0787 23.6129 
469 C 1 73.3082 81.9173 22.5408 
239 C 1 74.6678 82.0955 18.5063 
252 C 1 72.8557 81.8807 16.3959 
442 C 1 78.3775 81.4596 22.7247 
443 C 1 77.9018 81.6141 24.097 
229 C 1 75.1324 81.9745 20.877 
238 C 1 75.197 82.2144 17.1749 
214 C 1 77.9282 81.6789 20.2659 
215 C 1 77.4655 81.6279 21.6516 
216 C 1 76.0487 81.9072 21.9564 
226 C 1 77.3676 81.5722 17.8754 
227 C 1 76.996 81.8146 19.198 
228 C 1 75.5988 81.9749 19.5418 
237 C 1 76.488 81.8623 16.8329 
455 C 1 75.6335 82.0504 23.3229 
520 C 1 73.3614 67.9109 29.9746 
521 C 1 73.8255 67.8313 31.3108 
532 C 1 73.7692 67.6818 27.5933 
533 C 1 74.261 67.659 28.9208 
541 C 1 72.8587 67.961 24.9242 
542 C 1 74.2665 67.5323 25.2449 
531 C 1 72.4618 68.1935 27.3383 
530 C 1 72.0571 68.359 25.9954 
543 C 1 74.7407 67.6039 26.5639 
519 C 1 72.043 68.2629 29.6903 
518 C 1 71.5798 68.5429 28.3956 
509 C 1 71.5906 68.4164 32.0742 
508 C 1 71.1982 68.6675 30.7529 
522 C 1 75.2162 67.6109 31.6075 
556 C 1 76.6541 67.659 24.4237 
534 C 1 75.6279 67.609 29.2004 
535 C 1 76.1597 67.693 30.529 
544 C 1 76.1463 67.7674 26.8137 
545 C 1 76.5689 67.8094 28.1672 
557 C 1 77.0959 67.7775 25.7571 
536 C 1 77.4585 68.1557 30.7911 
546 C 1 77.9225 68.2571 28.3956 
537 C 1 77.8731 68.3355 32.1242 
558 C 1 78.3966 68.3476 25.9707 
547 C 1 78.3081 68.506 29.7219 
559 C 1 78.8345 68.5432 27.3259 
480 C 1 67.6951 73.8747 30.8041 
490 C 1 67.7968 73.4623 28.3999 
491 C 1 67.8248 72.9937 29.6907 
501 C 1 67.7323 74.3897 25.7464 
502 C 1 67.9293 72.9903 25.9847 
503 C 1 68.0819 72.5656 27.381 
513 C 1 68.4294 72.1992 24.8906 
481 C 1 67.8813 73.4263 32.1117 
492 C 1 68.2617 71.6118 29.9408 
493 C 1 68.5394 71.1866 31.3098 
504 C 1 68.6393 71.2965 27.5498 
505 C 1 68.7427 70.8193 28.8596 
489 C 1 67.7257 74.8459 28.1304 
500 C 1 67.8005 74.8921 24.4227 
529 C 1 70.853 68.9738 25.7024 
514 C 1 68.9858 70.949 25.1435 
528 C 1 70.409 69.1495 24.378 
515 C 1 69.254 70.6038 26.4957 
494 C 1 69.2923 69.956 31.5188 
506 C 1 69.6191 69.7278 29.0884 
507 C 1 69.982 69.4298 30.4026 
516 C 1 70.1356 69.4871 26.7241 
517 C 1 70.3714 69.1703 28.0677 
569 C 1 79.1857 68.9099 24.9672 
548 C 1 79.5233 69.2861 29.9894 
549 C 1 79.8497 69.6183 31.3287 
560 C 1 79.882 69.5039 27.5983 
561 C 1 80.1213 69.9865 28.9425 
570 C 1 80.2523 69.7572 25.2484 
571 C 1 80.5021 70.233 26.5687 
550 C 1 80.817 70.6002 31.563 
562 C 1 81.0301 71.0191 29.276 
572 C 1 81.2544 71.3802 26.8507 
573 C 1 81.5018 71.8638 28.1713 
563 C 1 81.3523 71.4262 30.5684 
580 C 1 81.5116 71.7587 24.4952 
581 C 1 81.6895 72.199 25.8083 
564 C 1 81.8882 72.6657 30.8022 
574 C 1 82.0337 73.1064 28.4725 
575 C 1 82.225 73.5674 29.7746 
582 C 1 82.1164 73.5925 26.0463 
583 C 1 82.235 74.0248 27.3344 
587 C 1 82.2976 74.4728 24.8973 
565 C 1 82.0087 73.095 32.1236 
576 C 1 82.3823 74.9129 30.0392 
466 C 1 67.8962 76.2504 31.6087 
477 C 1 68.1259 77.1346 28.9177 
478 C 1 67.8143 75.732 29.1739 
479 C 1 67.7055 75.3075 30.5121 
487 C 1 67.9172 76.7712 26.5221 
488 C 1 67.8101 75.329 26.8344 
486 C 1 67.9709 77.2506 25.1972 
476 C 1 68.2656 77.6081 27.5853 
465 C 1 68.2945 77.5753 31.3564 
464 C 1 68.5135 77.9543 30.0095 
485 C 1 68.5012 78.5296 24.919 
454 C 1 68.5829 78.5085 32.3482 
475 C 1 68.8664 78.866 27.369 
474 C 1 69.0562 79.2903 26.0231 
472 C 1 70.3109 80.5883 24.3777 
463 C 1 69.2138 79.1621 29.7101 
452 C 1 69.7629 79.9633 30.7653 
462 C 1 69.3121 79.6687 28.413 
473 C 1 69.9741 80.3159 25.7355 
453 C 1 69.3826 79.6455 32.1029 
461 C 1 70.3025 80.6923 28.1285 
460 C 1 70.7188 80.9546 26.7729 
451 C 1 70.7748 80.9621 30.5253 
450 C 1 71.0905 81.2322 29.1841 
438 C 1 71.6642 81.2423 31.6333 
407 C 1 80.5281 79.7063 29.7592 
408 C 1 79.4722 80.5855 29.9821 
418 C 1 80.5189 79.7505 25.9534 
419 C 1 80.2017 80.0693 27.3195 
429 C 1 79.9846 80.5207 24.8745 
406 C 1 80.8559 79.3728 28.428 
401 C 1 80.7317 79.2525 32.0933 
400 C 1 81.1004 78.9262 30.8111 
420 C 1 79.0925 80.9185 27.5895 
409 C 1 79.1187 80.9092 31.3232 
417 C 1 81.2455 78.5668 25.7687 
430 C 1 78.8032 81.2313 25.1483 
421 C 1 78.6608 81.1505 28.9308 
405 C 1 81.6001 78.1467 28.1071 
416 C 1 81.4986 78.1472 24.4057 
404 C 1 81.6358 77.6423 26.7572 
399 C 1 81.7573 77.689 30.5318 
393 C 1 82.3094 75.4013 31.3042 
394 C 1 81.9302 76.7067 31.6066 
397 C 1 82.2514 75.8422 28.9606 
398 C 1 81.8686 77.2013 29.164 
403 C 1 82.1114 76.3351 26.5275 
584 C 1 82.264 75.4325 27.5799 
588 C 1 82.1562 75.8575 25.1921 
459 C 1 71.9756 81.6226 26.5283 
437 C 1 72.9434 81.8016 31.3754 
449 C 1 72.3746 81.8562 28.9398 
436 C 1 73.2444 82.0936 30.0137 
447 C 1 74.2566 82.0762 27.3204 
457 C 1 73.8041 81.9824 24.9272 
458 C 1 72.4567 81.6938 25.1958 
448 C 1 72.8337 81.8485 27.6223 
446 C 1 74.7087 82.1134 25.9611 
435 C 1 74.6624 82.2214 29.7261 
425 C 1 75.2564 82.0274 32.1374 
434 C 1 75.1497 82.1894 28.4209 
444 C 1 76.5879 81.951 24.3575 
432 C 1 77.0074 81.8962 26.7796 
424 C 1 75.6685 82.0465 30.7663 
422 C 1 77.4543 81.7439 29.1723 
431 C 1 78.3542 81.4092 26.5057 
410 C 1 77.9585 81.6409 31.5932 
423 C 1 77.0515 81.8998 30.5021 
445 C 1 76.1005 82.04 25.6689 
433 C 1 76.5298 81.9852 28.1403 
727 C 1 72.3552 67.8806 38.4954 
728 C 1 73.7297 67.5177 38.851 
729 C 1 74.1713 67.2846 40.217 
737 C 1 72.8633 67.7573 36.1282 
738 C 1 74.245 67.5379 36.4389 
749 C 1 73.3357 67.9029 33.7333 
736 C 1 72.4439 68.0915 34.7957 
750 C 1 74.7468 67.746 34.0187 
726 C 1 71.9275 68.1032 37.1917 
739 C 1 74.7158 67.4704 37.7684 
714 C 1 71.4386 68.2121 39.5592 
735 C 1 71.1677 68.6418 34.5009 
510 C 1 72.9352 67.9891 32.389 
751 C 1 75.1468 67.7025 35.3466 
523 C 1 75.6557 67.707 32.9419 
524 C 1 77.0595 68.0231 33.2379 
740 C 1 76.0687 67.6268 38.0261 
741 C 1 76.4331 67.6344 39.4104 
752 C 1 76.5086 67.9455 35.5644 
753 C 1 76.9308 68.018 36.9202 
763 C 1 77.4815 68.1795 34.5513 
742 C 1 77.7442 68.3027 39.6668 
754 C 1 78.2144 68.5584 37.2224 
755 C 1 78.6096 68.6867 38.5433 
468 C 1 67.7971 74.3664 33.2082 
686 C 1 67.8873 73.3607 39.6667 
697 C 1 67.812 74.3756 36.9328 
698 C 1 67.9615 72.9571 37.1503 
699 C 1 68.0933 72.516 38.5245 
707 C 1 67.6659 73.8373 34.5461 
708 C 1 67.8797 72.4323 34.8041 
709 C 1 68.0592 71.9876 36.1402 
721 C 1 68.2539 71.5583 33.6787 
700 C 1 68.4963 71.1421 38.809 
710 C 1 68.635 70.6976 36.3838 
701 C 1 68.6699 70.681 40.1575 
696 C 1 67.7689 74.7846 35.58 
685 C 1 67.8557 74.7807 39.3648 
482 C 1 68.234 72.0697 32.3946 
725 C 1 70.7461 68.7675 36.8696 
496 C 1 70.7607 68.8357 33.1618 
711 C 1 68.9626 70.3665 37.7344 
722 C 1 68.8656 70.249 33.9146 
495 C 1 69.6265 69.5946 32.8799 
712 C 1 69.9628 69.3274 37.9706 
713 C 1 70.2832 68.9816 39.3126 
723 C 1 69.1271 69.9221 35.2592 
724 C 1 70.2569 68.9851 35.5478 
702 C 1 69.6166 69.6461 40.418 
538 C 1 79.052 69.0295 32.3837 
764 C 1 78.729 68.7751 34.822 
765 C 1 79.0403 69.0616 36.2001 
756 C 1 79.6644 69.5871 38.8531 
757 C 1 80.0594 69.9676 40.115 
766 C 1 79.9228 70.0767 36.4705 
767 C 1 80.2871 70.3681 37.7701 
773 C 1 79.4371 69.3196 33.7279 
774 C 1 80.5396 70.2501 34.0594 
775 C 1 80.5646 70.7694 35.4145 
551 C 1 81.2199 70.9178 32.9854 
768 C 1 81.0537 71.5623 38.0394 
758 C 1 80.9606 71.0317 40.3919 
776 C 1 81.3318 71.9432 35.6182 
769 C 1 81.3819 71.9422 39.3345 
777 C 1 81.4897 72.427 36.9399 
552 C 1 81.7226 72.2292 33.2506 
770 C 1 81.9587 73.2034 39.5847 
778 C 1 81.9059 73.7125 37.1958 
779 C 1 82.0314 74.1477 38.5196 
781 C 1 81.7529 72.6818 34.5465 
782 C 1 81.9758 74.0357 34.7413 
783 C 1 81.9947 74.5683 36.1238 
609 C 1 82.1527 74.9818 33.7487 
566 C 1 82.3391 74.5067 32.4045 
467 C 1 67.8158 75.7722 32.9868 
673 C 1 68.2992 77.0766 40.2312 
682 C 1 68.2578 77.1444 36.4644 
683 C 1 68.1916 76.6214 37.8326 
684 C 1 67.832 75.2435 38.0012 
694 C 1 67.9791 76.6909 34.0214 
695 C 1 68.0036 76.2474 35.3717 
672 C 1 68.451 77.4992 38.8981 
693 C 1 68.4394 78.0291 33.6886 
674 C 1 67.9412 75.7436 40.3936 
681 C 1 68.7791 78.3621 36.1695 
671 C 1 69.018 78.7742 38.6013 
680 C 1 68.8639 78.8565 34.8473 
670 C 1 69.2614 79.1489 37.2384 
440 C 1 70.0637 80.2853 33.1875 
657 C 1 70.4437 80.5753 39.41 
658 C 1 69.5687 79.4787 39.6736 
668 C 1 70.4966 80.4951 35.6009 
669 C 1 70.2011 80.1767 36.9675 
679 C 1 69.7483 79.9581 34.5672 
656 C 1 70.8553 80.7918 38.0716 
439 C 1 71.2669 80.9707 32.9744 
667 C 1 71.7144 81.2246 35.3403 
646 C 1 71.2197 81.2332 40.4435 
614 C 1 80.6468 79.9399 37.1456 
615 C 1 80.3654 80.2577 38.4785 
624 C 1 80.3906 80.2999 34.6873 
625 C 1 80.0396 80.5988 36.0609 
637 C 1 79.5688 80.7532 33.6401 
602 C 1 80.9816 79.5718 39.5643 
623 C 1 81.1046 79.0705 34.4901 
616 C 1 79.2301 81.0717 38.7679 
402 C 1 79.8359 80.2896 32.3778 
613 C 1 81.265 78.6755 36.8897 
396 C 1 81.3052 78.5343 33.1197 
612 C 1 81.4478 78.2257 35.5913 
601 C 1 81.5869 78.2988 39.32 
600 C 1 81.5869 77.8167 38.0201 
395 C 1 81.71 77.2157 32.9356 
593 C 1 82.1699 76.0174 40.0998 
599 C 1 82.0163 76.46 37.7432 
610 C 1 81.9376 76.3777 34.0126 
611 C 1 81.8948 76.8784 35.3632 
780 C 1 82.1081 75.4913 38.7602 
784 C 1 82.0166 75.939 36.424 
594 C 1 81.9662 77.4129 40.3927 
655 C 1 72.0367 81.6318 37.7796 
645 C 1 72.5007 81.8907 40.1827 
666 C 1 72.1264 81.384 33.9914 
654 C 1 72.4615 81.6653 36.4169 
643 C 1 74.3828 82.1491 38.5496 
644 C 1 73.0082 82.0411 38.8143 
652 C 1 74.3596 81.943 34.8029 
653 C 1 73.8793 81.9588 36.1495 
665 C 1 73.4412 81.73 33.7269 
642 C 1 74.8176 82.2291 37.1806 
426 C 1 73.9173 81.8922 32.381 
617 C 1 78.8579 81.306 40.0912 
626 C 1 78.8372 81.3475 36.3316 
638 C 1 78.3901 81.4912 33.9153 
627 C 1 78.4366 81.5498 37.7138 
639 C 1 77.9642 81.661 35.2612 
630 C 1 75.2828 82.2628 39.5767 
411 C 1 77.5622 81.9114 32.9175 
412 C 1 76.1991 82.1449 33.1923 
628 C 1 77.135 82.023 37.9953 
629 C 1 76.6501 82.1636 39.3605 
640 C 1 76.6781 82.0853 35.5918 
641 C 1 76.2289 82.2367 36.9432 
651 C 1 75.7381 82.1463 34.4974 
618 C 1 77.5889 81.9801 40.3627 
706 C 1 72.7364 67.7182 43.689 
716 C 1 73.2049 67.4961 41.2551 
717 C 1 73.6291 67.3918 42.6404 
932 C 1 72.3519 68.0497 46.1341 
933 C 1 72.8095 67.9184 47.4292 
934 C 1 74.1919 67.737 47.7551 
945 C 1 73.2372 67.7867 45.0376 
946 C 1 74.6068 67.6434 45.3328 
715 C 1 71.9482 68.1207 40.9279 
705 C 1 71.4894 68.3379 43.4256 
704 C 1 71.1219 68.5673 42.0327 
931 C 1 71.0531 68.4607 45.8533 
921 C 1 70.6254 68.6936 48.2675 
730 C 1 75.5456 67.3872 40.5359 
718 C 1 75.048 67.4778 42.9197 
947 C 1 75.0766 67.7463 46.7018 
719 C 1 75.4889 67.5653 44.2625 
720 C 1 76.842 68.0034 44.5132 
731 C 1 76.0002 67.5093 41.8612 
732 C 1 77.2883 68.0729 42.0908 
948 C 1 76.4779 67.9545 46.9103 
949 C 1 77.0237 68.0873 48.1889 
733 C 1 77.8053 68.326 43.3826 
959 C 1 77.3794 68.1575 45.7947 
743 C 1 78.1364 68.562 40.9753 
950 C 1 78.3134 68.5553 48.4493 
664 C 1 67.7871 74.3165 44.4442 
676 C 1 67.727 73.8301 42.0336 
677 C 1 67.87 73.3827 43.3827 
687 C 1 67.9269 72.851 41.0164 
893 C 1 67.6798 74.312 48.15 
903 C 1 67.8506 73.8267 45.7616 
904 C 1 68.0992 72.4588 46.0438 
678 C 1 68.1886 72.0401 43.6476 
905 C 1 68.1539 71.9905 47.3712 
917 C 1 68.3351 71.6043 44.9621 
688 C 1 68.3043 71.5651 41.2514 
689 C 1 68.4285 71.0436 42.5956 
906 C 1 68.6788 70.6814 47.62 
892 C 1 67.6533 74.7864 46.7943 
894 C 1 67.8655 72.9037 48.4455 
692 C 1 70.6471 68.7684 44.4961 
918 C 1 68.9767 70.3504 45.2578 
690 C 1 69.2013 69.8805 42.8356 
691 C 1 69.5628 69.6317 44.1701 
703 C 1 69.9965 69.3674 41.8041 
919 C 1 69.2309 69.8965 46.6116 
920 C 1 70.2198 68.895 46.9284 
960 C 1 78.5155 68.8566 46.0855 
961 C 1 78.928 69.1177 47.3334 
734 C 1 79.0289 69.1486 43.6703 
744 C 1 79.335 69.3654 41.2786 
745 C 1 79.7964 69.6399 42.5928 
962 C 1 79.9366 70.0757 47.6367 
969 C 1 79.2827 69.4787 45.0288 
970 C 1 80.2608 70.4508 45.1785 
746 C 1 80.7492 70.631 42.8133 
971 C 1 80.5981 70.8199 46.5324 
747 C 1 80.8926 71.1443 44.1203 
972 C 1 81.2088 72.0655 46.8065 
974 C 1 81.7281 73.7918 48.4489 
759 C 1 81.2813 71.4377 41.7587 
748 C 1 81.5431 72.3894 44.3774 
973 C 1 81.3434 72.4356 48.2028 
760 C 1 81.7865 72.7619 42.0011 
761 C 1 81.9709 73.2593 43.3141 
762 C 1 82.2779 74.6499 43.5832 
771 C 1 82.0224 73.6647 40.8788 
977 C 1 81.6781 72.8457 45.6829 
978 C 1 82.088 74.1421 46.0444 
979 C 1 82.0664 74.6582 47.3832 
662 C 1 67.9388 76.1618 42.8539 
663 C 1 67.8129 75.7484 44.184 
675 C 1 67.8217 75.2167 41.762 
878 C 1 68.0997 77.1 47.638 
890 C 1 68.0725 76.6169 45.2404 
891 C 1 67.7979 76.1701 46.5938 
661 C 1 68.3795 77.4982 42.6072 
889 C 1 68.5762 77.8788 45.022 
660 C 1 68.5935 77.949 41.2856 
877 C 1 68.6882 78.3399 47.4258 
650 C 1 68.7439 78.3319 43.6901 
866 C 1 69.17 79.1896 48.4472 
876 C 1 69.0759 78.6976 46.0942 
659 C 1 69.2703 79.1129 41.015 
636 C 1 70.2669 80.1646 44.4271 
648 C 1 69.8082 79.8752 42.0517 
649 C 1 69.5735 79.4338 43.424 
864 C 1 70.6833 80.4398 46.7909 
865 C 1 70.2937 80.0464 48.1189 
875 C 1 70.0122 79.7303 45.8098 
647 C 1 70.8149 80.8131 41.7752 
635 C 1 71.3667 81.0374 44.1576 
634 C 1 71.7517 81.2131 42.8344 
810 C 1 80.7137 79.9036 48.403 
605 C 1 79.2371 81.0687 42.5041 
598 C 1 80.102 80.6309 43.5799 
603 C 1 80.5742 79.8268 40.9456 
604 C 1 79.629 80.8041 41.1529 
820 C 1 80.3518 80.2526 46.029 
821 C 1 79.9687 80.5415 47.3782 
833 C 1 79.6803 80.8644 44.9307 
597 C 1 80.9825 79.4857 43.3065 
596 C 1 81.181 79.0651 41.9536 
819 C 1 81.2357 79.1134 45.7302 
592 C 1 81.4322 78.7113 44.3991 
772 C 1 82.2123 75.0643 41.2034 
805 C 1 82.3125 75.0997 44.942 
809 C 1 81.5782 78.7818 48.1438 
808 C 1 81.7209 78.3185 46.7805 
595 C 1 81.8501 77.8461 41.7581 
589 C 1 82.275 75.5534 42.4976 
590 C 1 82.0855 76.9793 42.8049 
591 C 1 82.0568 77.4958 44.1749 
806 C 1 82.2449 76.5473 45.2422 
807 C 1 82.1975 76.988 46.5692 
980 C 1 82.2031 76.1082 47.6774 
838 C 1 74.8369 82.2165 48.4766 
863 C 1 71.7087 81.4319 46.5701 
862 C 1 72.0715 81.5968 45.2021 
850 C 1 72.4803 81.8718 47.652 
622 C 1 73.8951 82.1579 43.6858 
848 C 1 74.3887 82.287 46.0963 
849 C 1 73.8814 82.2267 47.4384 
632 C 1 73.4128 82.0472 41.2569 
633 C 1 72.9833 81.8914 42.5806 
861 C 1 73.3838 82.1947 45.0511 
631 C 1 74.8055 82.2662 41.0086 
834 C 1 78.5091 81.501 45.2666 
619 C 1 77.1051 82.0644 41.716 
837 C 1 76.2172 82.0966 48.2089 
607 C 1 77.5541 81.7864 44.2228 
847 C 1 75.7473 82.3187 45.8369 
822 C 1 78.7773 81.3108 47.646 
836 C 1 76.6919 82.0841 46.879 
621 C 1 75.2798 82.1781 43.3993 
608 C 1 76.1744 82.0851 44.5111 
835 C 1 78.001 81.7286 46.5638 
606 C 1 77.9251 81.6939 42.849 
620 C 1 75.7751 82.3192 42.0722 
902 C 1 72.821 67.7988 54.946 
912 C 1 73.3019 67.6556 52.5242 
913 C 1 73.7759 67.6072 53.8294 
923 C 1 72.3687 67.9483 49.9258 
924 C 1 73.7906 67.7811 50.1608 
925 C 1 74.2786 67.7869 51.462 
1141 C 1 73.3754 67.8616 56.2927 
911 C 1 71.8759 67.9534 52.2902 
1142 C 1 74.7671 67.7984 56.5189 
935 C 1 74.7261 67.8035 49.0761 
901 C 1 71.5747 68.3642 54.6535 
910 C 1 71.4198 68.0579 50.9446 
900 C 1 71.0642 68.5283 53.333 
922 C 1 71.9943 68.1595 48.5423 
914 C 1 75.1811 67.7167 54.1071 
915 C 1 75.6411 67.909 55.4526 
916 C 1 76.9787 68.2936 55.6764 
926 C 1 75.6398 67.8141 51.7862 
927 C 1 76.1611 67.821 53.1137 
928 C 1 77.4625 68.2206 53.3258 
936 C 1 76.1271 67.8804 49.349 
937 C 1 76.5537 68.008 50.7172 
938 C 1 77.9508 68.3233 50.8849 
929 C 1 77.8678 68.4694 54.63 
939 C 1 78.4083 68.4987 52.2431 
951 C 1 78.7016 68.7262 49.7852 
860 C 1 67.5324 74.4937 55.7519 
872 C 1 67.6666 73.9108 53.2452 
873 C 1 67.5973 73.4831 54.6505 
882 C 1 67.8795 73.445 50.8557 
883 C 1 67.9861 72.9886 52.1796 
895 C 1 67.9974 72.4836 49.8134 
874 C 1 68.0617 72.132 54.9131 
1113 C 1 68.3609 71.7496 56.3019 
884 C 1 68.449 71.696 52.4931 
885 C 1 68.5244 71.2823 53.8548 
896 C 1 68.5198 71.1616 50.1216 
881 C 1 67.7721 74.8587 50.5281 
897 C 1 68.8956 70.8549 51.4466 
888 C 1 70.6901 68.8013 55.6916 
907 C 1 69.0138 70.3764 48.9955 
886 C 1 69.1941 70.0523 54.1631 
887 C 1 69.5952 69.7338 55.5019 
898 C 1 69.682 69.7205 51.7907 
899 C 1 69.9682 69.3747 53.1017 
908 C 1 69.9745 69.3126 49.3677 
909 C 1 70.2794 68.9398 50.6907 
1114 C 1 69.0515 70.5142 56.5384 
930 C 1 79.101 69.099 54.9274 
940 C 1 79.6675 69.2448 52.5122 
941 C 1 79.9979 69.6124 53.8401 
952 C 1 79.719 69.7513 50.0476 
953 C 1 80.1994 70.029 51.43 
963 C 1 80.2399 70.4512 48.9764 
1165 C 1 79.5429 69.3463 56.2439 
942 C 1 80.7726 70.7853 54.0563 
1166 C 1 80.4924 70.3389 56.5289 
954 C 1 80.889 71.2118 51.7044 
943 C 1 80.9984 71.1304 55.4229 
955 C 1 81.2128 71.6184 53.0135 
964 C 1 80.981 71.5901 49.2773 
965 C 1 81.2321 72.0551 50.6213 
944 C 1 81.6614 72.3627 55.6977 
956 C 1 81.7705 72.9019 53.2492 
957 C 1 81.9998 73.2611 54.6145 
958 C 1 82.2644 74.6607 54.909 