ITEM: TIMESTEP
434987
ITEM: NUMBER OF ATOMS
5084
ITEM: BOX BOUNDS pp pp pp
0.0000000000000000e+00 1.5000000000000000e+02
0.0000000000000000e+00 1.5000000000000000e+02
0.0000000000000000e+00 2.8837799999999999e+02
ITEM: ATOMS id element type x y z 
266 C 1 71.161 74.2082 1.48234 
267 C 1 71.971 73.4854 2.48046 
271 C 1 71.1478 74.2885 6.56949 
321 C 1 73.5291 72.8262 0.673876 
322 C 1 73.1709 72.8808 2.08222 
323 C 1 74.1637 72.6243 3.05383 
324 C 1 71.6755 73.6831 3.87337 
325 C 1 72.5525 73.1886 4.87287 
326 C 1 72.2041 73.4315 6.23243 
327 C 1 73.1326 72.9194 7.19344 
381 C 1 73.8529 72.7349 4.44324 
385 C 1 72.8676 73.129 8.57564 
383 C 1 74.4837 72.6103 6.82424 
328 C 1 70.9079 74.5307 7.92487 
382 C 1 74.8657 72.5276 5.44045 
377 C 1 74.8823 72.6754 0.272852 
269 C 1 70.6333 74.585 4.21021 
270 C 1 70.426 74.9724 5.58309 
329 C 1 71.7139 73.8975 8.9405 
265 C 1 71.4533 74.0244 0.0957211 
384 C 1 75.4981 72.5407 7.83927 
379 C 1 75.5513 72.4602 2.67349 
378 C 1 75.8547 72.5819 1.25591 
380 C 1 76.5377 72.694 3.66408 
434 C 1 77.2251 72.987 0.87502 
435 C 1 78.0585 73.5604 1.88149 
436 C 1 77.7273 73.3381 3.2511 
437 C 1 78.5479 73.9495 4.24796 
438 C 1 76.2529 72.6264 5.03989 
439 C 1 77.1796 72.9035 6.05956 
440 C 1 76.8651 72.7308 7.46446 
441 C 1 77.7725 73.2254 8.44417 
494 C 1 78.3458 73.6717 5.66744 
495 C 1 79.0474 74.3993 6.68189 
496 C 1 78.8912 74.1184 8.05032 
490 C 1 78.9751 74.56 1.50355 
433 C 1 79.1889 74.8863 0.152289 
5062 H 2 73.0441 76.5817 0.39153 
210 C 1 70.3495 75.3007 1.81653 
105 C 1 69.9043 79.8581 0.523776 
155 C 1 69.4382 77.5557 1.1397 
156 C 1 70.11 80.1528 1.92444 
157 C 1 69.6049 79.2453 2.91712 
158 C 1 69.7808 79.5486 4.27565 
159 C 1 69.5249 78.6232 5.32013 
161 C 1 70.1751 80.274 7.07449 
162 C 1 70.3222 80.5626 8.41876 
209 C 1 69.8043 76.1861 0.861101 
211 C 1 69.4103 77.8756 2.52525 
212 C 1 69.5867 76.8598 3.56262 
213 C 1 69.5398 77.2116 4.95764 
214 C 1 69.8197 76.2282 5.96211 
215 C 1 69.7104 78.9886 6.67239 
216 C 1 69.6036 77.977 7.68395 
268 C 1 70.0631 75.552 3.19349 
272 C 1 69.7876 76.6152 7.31159 
273 C 1 70.1545 75.6993 8.3179 
109 C 1 70.4574 80.8099 4.74851 
5058 O 3 74.1265 79.8105 4.47958 
5060 H 2 74.0455 80.107 3.57306 
3645 O 3 74.423 79.6861 7.25303 
3646 H 2 74.2257 80.281 6.52959 
5067 O 3 73.6572 79.4609 1.52827 
3623 H 2 73.2537 78.3082 7.21553 
5069 H 2 73.3534 78.5833 1.2965 
5059 H 2 73.6414 78.9857 4.50656 
160 C 1 70.7057 81.1059 6.07903 
5074 H 2 73.8918 76.3844 6.16221 
5073 O 3 74.3117 75.6275 5.75351 
3631 H 2 73.3843 76.653 4.53608 
5061 O 3 73.305 76.828 1.27896 
3630 O 3 72.8382 77.3814 4.24041 
3632 H 2 72.8549 77.3215 3.28523 
3621 O 3 72.7953 77.4781 7.08507 
3622 H 2 72.2749 77.6132 6.2931 
5063 H 2 74.183 76.461 1.38155 
5068 H 2 73.5092 79.9823 0.739293 
154 C 1 69.5356 78.546 0.130498 
107 C 1 70.8696 81.2412 2.34397 
3647 H 2 75.3096 79.3738 7.07204 
5075 H 2 75.22 75.8993 5.62139 
5078 H 2 75.8684 75.636 7.57238 
5071 H 2 75.8578 79.3674 4.56776 
492 C 1 79.392 75.08 3.93003 
5084 H 2 75.5089 79.1686 1.88749 
5082 O 3 76.4563 79.1596 1.75116 
5083 H 2 76.8255 79.3062 2.62204 
3627 O 3 77.0054 78.6022 7.22492 
3629 H 2 76.9882 78.893 8.13673 
5070 O 3 76.7284 78.9976 4.42099 
5072 H 2 77.1823 79.1137 5.2557 
3628 H 2 76.8328 77.6617 7.26965 
5080 H 2 76.2574 77.3105 1.94909 
3635 H 2 76.6045 77.3412 4.73866 
5079 O 3 76.0651 76.3822 2.08183 
5081 H 2 76.4773 76.1691 2.91907 
3633 O 3 76.8184 76.4086 4.7123 
5076 O 3 76.6265 76.0456 7.98931 
5077 H 2 76.5488 75.8094 8.91365 
3634 H 2 77.4342 76.2832 5.43424 
491 C 1 79.4483 75.436 2.54075 
1 C 1 79.9819 78.486 0.464044 
2 C 1 79.7905 79.5177 1.4046 
3 C 1 80.0725 78.429 5.5385 
4 C 1 79.2235 80.7672 1.14075 
6 C 1 79.8976 79.1511 2.77963 
7 C 1 79.6852 80.0923 3.85771 
8 C 1 79.8895 79.7938 5.25896 
9 C 1 79.5155 80.6787 6.25405 
10 C 1 80.2108 78.0146 6.88426 
11 C 1 80.1444 78.9819 7.89988 
22 C 1 79.666 80.2812 7.6111 
489 C 1 80.022 77.0617 0.759864 
493 C 1 79.805 76.0643 4.88266 
544 C 1 79.9379 76.6933 2.13548 
545 C 1 80.078 77.745 3.14173 
546 C 1 80.1057 77.4111 4.50141 
547 C 1 79.688 75.6806 6.27525 
548 C 1 80.0375 76.6681 7.27646 
549 C 1 80.0294 76.2521 8.67203 
23 C 1 79.0982 81.0336 8.62669 
5065 H 2 76.3895 76.168 0.325813 
65 C 1 73.681 83.0086 0.635695 
66 C 1 72.7738 82.6334 1.66019 
67 C 1 73.1018 82.86 3.00105 
68 C 1 72.2269 82.3719 4.0315 
70 C 1 73.8536 83.0844 5.80636 
71 C 1 74.175 83.1519 7.17142 
72 C 1 73.2279 82.9185 8.16946 
106 C 1 71.6013 81.9331 1.30874 
108 C 1 71.0878 81.5838 3.6769 
110 C 1 72.5447 82.564 5.43238 
111 C 1 71.6497 82.0862 6.4464 
112 C 1 71.9954 82.2661 7.85593 
113 C 1 71.1667 81.6629 8.85157 
38 C 1 74.407 83.1889 3.41534 
69 C 1 74.8152 83.1992 4.78049 
18 C 1 79.0382 81.3136 3.4535 
36 C 1 75.0618 83.1772 1.00272 
5 C 1 78.6777 81.5884 2.12611 
15 C 1 77.3206 82.5804 0.377997 
16 C 1 77.6146 82.3916 1.7769 
17 C 1 76.7991 82.8636 2.77164 
19 C 1 78.3764 82.1084 4.49716 
20 C 1 78.6473 81.758 5.88361 
21 C 1 77.8493 82.4061 6.87475 
37 C 1 75.416 83.1635 2.39656 
39 C 1 77.1521 82.7765 4.12661 
40 C 1 76.2119 83.0445 5.12489 
41 C 1 76.5584 82.9422 6.52594 
42 C 1 75.52 83.0783 7.52789 
43 C 1 78.1654 82.0739 8.28239 
73 C 1 75.9708 83.0755 8.93176 
3272 C 1 76.0712 83.0462 0.0215896 
330 C 1 71.4649 74.1462 10.308 
331 C 1 72.2377 73.4633 11.2859 
335 C 1 71.215 74.0377 15.4653 
386 C 1 73.8139 72.7589 9.54215 
387 C 1 73.5109 72.8577 10.9989 
388 C 1 74.4534 72.697 12.0201 
389 C 1 71.8899 73.6258 12.7065 
390 C 1 72.7308 73.1328 13.7386 
391 C 1 72.4349 73.3151 15.1035 
392 C 1 73.3679 72.9589 16.14 
393 C 1 70.9714 74.3224 16.8538 
446 C 1 74.088 72.7878 13.454 
450 C 1 72.9622 73.1053 17.5004 
448 C 1 74.7366 72.7633 15.77 
333 C 1 70.8889 74.6006 13.0715 
394 C 1 71.7352 73.6811 17.8876 
334 C 1 70.6538 74.882 14.4349 
447 C 1 75.1053 72.675 14.4115 
442 C 1 75.1831 72.5572 9.21732 
449 C 1 75.7481 72.8855 16.7754 
443 C 1 76.1336 72.6815 10.2619 
444 C 1 75.8418 72.6372 11.6481 
445 C 1 76.8421 72.8212 12.6732 
498 C 1 77.4398 73.0316 9.8222 
499 C 1 78.3162 73.6448 10.8291 
500 C 1 78.0619 73.3987 12.257 
501 C 1 78.8741 74.077 13.2483 
502 C 1 76.5008 72.7286 14.0542 
503 C 1 77.4136 73.1315 15.0525 
504 C 1 77.0752 73.1402 16.4004 
505 C 1 77.9964 73.5326 17.4245 
555 C 1 78.5926 73.8089 14.6031 
557 C 1 79.0823 74.3975 17.0231 
556 C 1 79.2484 74.5543 15.6522 
551 C 1 79.3236 74.6668 10.4285 
497 C 1 79.412 74.9722 9.07488 
3658 H 2 73.9021 80.0544 9.45401 
3637 H 2 72.8629 76.3589 9.12364 
3638 H 2 73.6322 77.5138 9.72875 
217 C 1 69.5184 78.3325 9.10924 
3649 H 2 74.1482 79.876 13.6931 
275 C 1 70.4912 75.1229 10.6578 
163 C 1 69.8634 79.6852 9.48478 
167 C 1 70.3893 80.689 13.5958 
218 C 1 69.4716 77.346 10.1003 
219 C 1 70.0082 79.9979 10.8485 
220 C 1 69.7018 79.0633 11.8704 
221 C 1 69.823 79.4172 13.2617 
222 C 1 69.709 78.4098 14.2542 
224 C 1 70.1111 80.0687 15.9936 
225 C 1 70.2842 80.4546 17.3681 
274 C 1 69.9348 76.0329 9.69993 
276 C 1 69.5269 77.7029 11.54 
277 C 1 69.5944 76.67 12.4984 
278 C 1 69.6387 77.044 13.8799 
279 C 1 69.958 76.0111 14.8553 
280 C 1 69.7678 78.7796 15.618 
281 C 1 69.62 77.7293 16.5987 
332 C 1 70.2136 75.4058 12.031 
336 C 1 69.7904 76.3778 16.2282 
337 C 1 70.2218 75.4614 17.2618 
3676 H 2 73.7087 79.9004 16.587 
3675 O 3 73.8192 79.6667 15.6654 
3657 O 3 74.04 79.3418 10.078 
3659 H 2 73.7488 79.6981 10.9174 
223 C 1 70.6463 80.9574 14.9697 
3648 O 3 74.242 79.665 12.7642 
3677 H 2 73.3284 78.8512 15.564 
3653 H 2 72.7356 77.223 11.759 
3636 O 3 73.2058 76.6872 9.95482 
3652 H 2 73.057 78.2562 12.8178 
3651 O 3 72.85 77.3287 12.7035 
3667 H 2 72.7855 77.035 14.4336 
3666 O 3 73.0122 77.134 15.3582 
3682 H 2 72.0394 77.6093 17.1891 
3668 H 2 73.4098 76.2971 15.5987 
3641 H 2 74.663 76.4176 13.2084 
165 C 1 70.7563 81.1465 11.2679 
282 C 1 69.5384 78.1768 17.9794 
3625 H 2 75.2696 75.3673 10.4431 
52 C 1 78.9864 81.1987 17.5715 
3644 H 2 75.7217 78.9277 10.2107 
3643 H 2 76.5421 77.6805 10.4621 
3650 H 2 75.1579 79.4038 12.6688 
558 C 1 79.7338 75.1812 18.022 
3664 H 2 75.3723 78.9633 15.523 
3663 O 3 76.2885 78.724 15.6633 
3665 H 2 76.7313 78.9865 14.8563 
3642 O 3 76.6214 78.6007 10.2109 
3660 O 3 76.8898 78.7887 12.9819 
3661 H 2 77.1201 78.8905 12.0584 
3662 H 2 76.4678 77.9309 13.0308 
3656 H 2 76.1857 76.8142 16.2165 
3626 H 2 76.0451 75.9814 11.5891 
3655 H 2 75.8423 75.3649 16.4877 
3654 O 3 75.81 76.0356 15.8055 
3640 H 2 75.8588 76.119 14.0875 
3639 O 3 75.6088 76.2736 13.1765 
3624 O 3 76.0285 75.9185 10.6341 
553 C 1 79.7701 75.1614 12.8312 
12 C 1 80.3203 78.6249 9.32419 
13 C 1 80.0124 79.5877 10.3326 
14 C 1 80.3236 78.4946 14.511 
26 C 1 80.1094 79.1456 11.7101 
27 C 1 79.7768 80.1238 12.7179 
28 C 1 79.903 79.8151 14.1202 
29 C 1 79.4603 80.7195 15.1997 
30 C 1 80.2989 78.0972 15.8736 
31 C 1 80.1054 79.1393 16.91 
51 C 1 79.5638 80.4276 16.5719 
550 C 1 80.3952 77.2534 9.75205 
552 C 1 80.0381 75.4171 11.4213 
554 C 1 80.12 76.162 13.8958 
597 C 1 80.3624 76.8009 11.0921 
598 C 1 80.3774 77.7893 12.1096 
599 C 1 80.3665 77.4703 13.4709 
600 C 1 79.8994 75.7991 15.2715 
601 C 1 80.1652 76.7609 16.3069 
602 C 1 80.1902 76.4349 17.66 
24 C 1 79.2529 80.7521 10.0299 
47 C 1 78.9469 81.2078 12.3647 
166 C 1 71.0796 81.4318 12.5883 
171 C 1 71.1066 81.5556 17.7584 
76 C 1 74.3711 83.1508 12.3177 
114 C 1 73.5847 83.1049 9.5403 
115 C 1 72.6543 82.5959 10.51 
116 C 1 73.0277 82.792 11.9587 
117 C 1 72.1576 82.2913 12.9389 
119 C 1 73.7634 82.9223 14.6672 
120 C 1 74.0731 83.0301 16.035 
121 C 1 73.0915 82.8937 17.041 
164 C 1 71.5228 81.8072 10.2183 
168 C 1 72.4056 82.5039 14.308 
169 C 1 71.6046 81.9663 15.2848 
170 C 1 71.8501 82.2572 16.6819 
118 C 1 74.794 83.086 13.6605 
74 C 1 74.9666 83.1587 9.88538 
78 C 1 76.1304 82.9837 14.0289 
81 C 1 77.9948 82.1498 17.1964 
44 C 1 77.2633 82.5381 9.25736 
49 C 1 78.4887 81.7311 14.7923 
75 C 1 75.3772 83.2248 11.2782 
50 C 1 77.6598 82.3062 15.8011 
80 C 1 75.465 83.0751 16.4238 
25 C 1 78.5992 81.453 11.0649 
79 C 1 76.4035 82.8653 15.3878 
77 C 1 77.1087 82.6355 13.0097 
46 C 1 76.6907 82.8084 11.6291 
45 C 1 77.5615 82.3186 10.6259 
122 C 1 75.8284 83.0832 17.7967 
48 C 1 78.2676 81.8928 13.4125 
395 C 1 71.3956 73.9597 19.2675 
396 C 1 72.3056 73.3788 20.244 
398 C 1 70.888 74.4102 21.9887 
400 C 1 71.4262 73.9195 24.3987 
451 C 1 74.0216 72.9306 18.4817 
452 C 1 73.6353 72.9693 19.8553 
454 C 1 71.9587 73.4329 21.6336 
455 C 1 72.8163 72.9142 22.6008 
456 C 1 72.5544 73.0973 24.0134 
457 C 1 73.4561 72.6676 25.0484 
458 C 1 71.1616 74.1107 25.7635 
459 C 1 71.8905 73.3472 26.7695 
510 C 1 74.1683 72.5715 22.2139 
514 C 1 73.1222 72.7211 26.4095 
453 C 1 74.5999 72.594 20.8228 
399 C 1 70.7299 74.6891 23.4072 
512 C 1 74.8437 72.4495 24.6389 
339 C 1 70.4631 74.9131 19.659 
511 C 1 75.2129 72.5335 23.2203 
507 C 1 76.3578 72.8909 19.1708 
508 C 1 76.045 72.7976 20.551 
509 C 1 76.9655 73.087 21.5604 
513 C 1 75.9072 72.6678 25.6233 
559 C 1 77.6744 73.2654 18.768 
560 C 1 78.5273 73.7881 19.8131 
561 C 1 78.2284 73.6077 21.1742 
562 C 1 78.9914 74.2082 22.2213 
563 C 1 76.5581 72.9265 22.9308 
564 C 1 77.4767 73.2459 23.9042 
565 C 1 77.2307 73.1097 25.2754 
566 C 1 78.1503 73.5009 26.2758 
608 C 1 78.7223 73.9351 23.5706 
610 C 1 79.2279 74.4052 25.9355 
609 C 1 79.4225 74.7001 24.5633 
506 C 1 75.3837 72.7808 18.1116 
604 C 1 79.5164 74.8282 19.4434 
567 C 1 75.5241 72.6352 26.9961 
3709 H 2 74.0285 79.9071 25.0279 
3706 H 2 74.0828 80.138 22.0565 
397 C 1 70.2861 75.2849 21.0208 
226 C 1 69.7654 79.5353 18.387 
230 C 1 70.239 80.5513 22.5326 
283 C 1 69.5591 77.1056 19.0003 
284 C 1 69.9013 79.8713 19.7486 
285 C 1 69.6905 78.8701 20.7608 
286 C 1 69.7542 79.2662 22.1763 
287 C 1 69.5909 78.2564 23.1491 
289 C 1 70.0181 79.9107 24.8938 
290 C 1 70.2733 80.2566 26.2579 
338 C 1 69.9685 75.7923 18.6236 
340 C 1 69.5551 77.5031 20.4033 
341 C 1 69.7749 76.5117 21.3816 
342 C 1 69.7151 76.8565 22.7891 
343 C 1 70.0771 75.9401 23.8092 
344 C 1 69.6794 78.5991 24.5158 
345 C 1 69.6301 77.5469 25.5361 
346 C 1 69.7031 77.8893 26.9569 
401 C 1 69.9021 76.2197 25.1886 
402 C 1 70.3893 75.2819 26.1921 
3705 O 3 74.2795 80.002 21.1297 
3708 O 3 74.2676 79.7633 24.1122 
288 C 1 70.5266 80.7858 23.9256 
228 C 1 70.5811 81.0917 20.156 
3712 H 2 73.2765 78.4413 23.8829 
3695 H 2 73.254 78.6944 20.6031 
3680 H 2 73.9643 80.5398 19.2205 
3711 O 3 72.6302 77.7407 23.7959 
3724 H 2 72.4545 77.6084 25.9726 
3713 H 2 72.2843 77.8419 22.9092 
3694 H 2 72.3953 77.758 19.7799 
3693 O 3 72.6029 77.9973 20.6831 
3723 O 3 72.9011 77.7031 26.8139 
3725 H 2 73.4814 76.9436 26.8643 
3697 H 2 73.1799 76.238 21.0451 
3700 H 2 73.7227 76.5075 24.0623 
3699 O 3 74.2625 75.7185 24.1107 
3701 H 2 73.9776 75.2817 24.9134 
3696 O 3 73.9817 75.7665 21.271 
3670 H 2 74.0749 75.5606 19.3788 
3698 H 2 73.937 75.6585 22.2211 
3726 O 3 74.2382 75.5462 26.8887 
3678 O 3 74.0185 80.1211 18.3614 
3669 O 3 74.2356 75.8204 18.4716 
3679 H 2 74.8114 79.5867 18.4045 
3671 H 2 73.556 76.4676 18.2833 
3681 O 3 72.41 77.6805 18.0688 
3683 H 2 72.6377 78.6059 18.159 
3710 H 2 75.2177 79.6477 24.1276 
3707 H 2 75.2203 79.8271 21.1071 
3689 H 2 77.0442 79.5865 22.2067 
3702 O 3 76.9863 79.2063 24.121 
3687 O 3 77.0192 79.236 21.3163 
3674 H 2 75.9301 76.331 18.2374 
3718 H 2 75.8225 79.5621 26.6877 
3717 O 3 76.7199 79.2739 26.8545 
3703 H 2 77.0918 79.4105 25.0502 
3688 H 2 76.8234 78.3059 21.43 
3704 H 2 76.8786 78.2555 24.0951 
3715 H 2 76.8555 77.5106 26.9808 
3684 O 3 76.6261 76.5143 21.2927 
3714 O 3 76.8156 76.5773 26.7721 
3716 H 2 77.0476 76.5287 25.8447 
3731 H 2 77.2966 76.3139 23.1006 
3685 H 2 76.9853 76.3991 20.4129 
3729 O 3 76.9558 76.4342 23.987 
3730 H 2 76.1712 75.8868 24.0187 
3686 H 2 75.7032 76.275 21.2083 
606 C 1 79.7191 75.4144 21.8128 
32 C 1 80.2113 78.82 18.2812 
33 C 1 79.8742 79.7779 19.2846 
34 C 1 80.2412 78.0941 21.0222 
35 C 1 80.2637 78.7288 23.457 
55 C 1 80.0396 79.4726 20.6575 
56 C 1 79.7659 80.4116 21.6721 
57 C 1 80.0077 80.0691 23.0557 
59 C 1 80.2191 78.4067 24.7638 
60 C 1 80.1005 79.4468 25.7696 
89 C 1 79.5532 80.7238 25.4261 
603 C 1 80.2617 77.4392 18.628 
605 C 1 79.8611 75.7644 20.4413 
607 C 1 80.0076 76.4048 22.8004 
641 C 1 80.1996 77.1045 20.0045 
642 C 1 80.2567 77.7676 22.4149 
643 C 1 79.9205 76.0285 24.2438 
644 C 1 80.1079 77.0356 25.1864 
645 C 1 80.0188 76.6992 26.575 
58 C 1 79.3835 80.9894 24.0468 
53 C 1 79.264 81.0078 18.9453 
3727 H 2 75.1561 75.8076 26.8146 
611 C 1 79.5957 75.3656 26.9992 
3691 H 2 76.8566 79.2201 19.5679 
3690 O 3 76.5441 79.2905 18.6659 
3672 O 3 76.8198 76.6384 18.4111 
3673 H 2 76.7695 77.5888 18.309 
3692 H 2 76.8824 80.1319 18.3596 
229 C 1 70.7867 81.3712 21.5206 
234 C 1 71.0286 81.4491 26.623 
125 C 1 74.1094 83.1366 21.1789 
172 C 1 73.3891 83.0339 18.4104 
173 C 1 72.44 82.6122 19.4526 
174 C 1 72.7672 82.7858 20.8014 
175 C 1 71.8845 82.2424 21.8377 
177 C 1 73.5553 82.9506 23.5488 
178 C 1 73.9462 83.0754 24.8941 
179 C 1 73.0362 82.783 25.9474 
227 C 1 71.2967 81.8492 19.1385 
231 C 1 72.2742 82.3517 23.2254 
232 C 1 71.5544 81.7742 24.2654 
233 C 1 71.8815 82.0153 25.6215 
176 C 1 74.537 83.0852 22.5411 
123 C 1 74.7719 83.3119 18.783 
90 C 1 79.0197 81.5751 26.4378 
124 C 1 75.1089 83.2232 20.1537 
82 C 1 77.1139 82.7742 18.1344 
129 C 1 75.342 83.2344 25.2997 
85 C 1 78.8367 81.469 21.2826 
54 C 1 78.5952 81.8544 19.9268 
83 C 1 77.4757 82.6524 19.486 
84 C 1 76.5007 82.9589 20.5265 
86 C 1 78.0084 82.0422 22.2973 
87 C 1 78.3613 81.934 23.6607 
88 C 1 77.6697 82.6425 24.6425 
126 C 1 76.8408 82.7636 21.9021 
127 C 1 75.8862 83.0603 22.9318 
128 C 1 76.3309 83.0434 24.3443 
130 C 1 77.9738 82.4981 26.0365 
180 C 1 75.7033 83.3491 26.6848 
460 C 1 71.5896 73.5326 28.1875 
461 C 1 72.5191 73.075 29.1869 
463 C 1 71.1944 74.2214 30.9215 
465 C 1 71.6269 73.6712 33.3195 
515 C 1 74.2046 72.5698 27.4201 
516 C 1 73.8016 72.6534 28.8099 
518 C 1 72.1967 73.2723 30.5314 
519 C 1 73.1033 72.7317 31.5437 
520 C 1 72.7494 72.8225 32.9262 
521 C 1 73.6873 72.5374 33.9296 
522 C 1 71.2834 73.9422 34.6672 
523 C 1 72.1421 73.3955 35.6773 
571 C 1 74.4773 72.5647 31.1591 
575 C 1 73.4192 72.8043 35.2967 
517 C 1 74.83 72.5293 29.8146 
464 C 1 71.0189 74.4801 32.2919 
404 C 1 70.6768 74.5881 28.5295 
462 C 1 70.5559 74.9812 29.8924 
573 C 1 75.0512 72.4755 33.5531 
572 C 1 75.4129 72.5908 32.1715 
568 C 1 76.5234 72.7974 28 
569 C 1 76.215 72.5815 29.3876 
570 C 1 77.118 73.0018 30.4482 
574 C 1 76.1141 72.6674 34.624 
612 C 1 77.7578 73.3929 27.674 
613 C 1 78.5532 73.999 28.7 
614 C 1 78.276 73.6926 30.0628 
615 C 1 79.0757 74.4435 31.0448 
616 C 1 76.7739 72.9001 31.833 
617 C 1 77.6996 73.3271 32.8645 
618 C 1 77.3563 73.1786 34.256 
619 C 1 78.217 73.7494 35.2565 
651 C 1 78.7881 74.206 32.474 
653 C 1 79.1707 74.7089 34.8548 
620 C 1 75.7475 72.6911 35.9886 
3720 O 3 74.1511 80.0924 27.1404 
3722 H 2 73.6335 79.2873 27.1504 
3745 H 2 74.1442 75.5064 30.7203 
3743 H 2 72.399 78.0984 29.0001 
3721 H 2 74.152 80.3885 28.0506 
3769 H 2 73.9909 80.3501 34.6047 
467 C 1 70.3965 75.0576 35.0131 
291 C 1 69.9675 79.2395 27.2386 
295 C 1 70.3789 80.3432 31.4202 
347 C 1 69.91 76.8875 27.9271 
348 C 1 70.1263 79.5771 28.6139 
349 C 1 69.8444 78.7047 29.6385 
350 C 1 69.8867 79.0611 31.0027 
351 C 1 69.709 78.0436 31.9931 
352 C 1 70.5963 80.6923 32.7554 
353 C 1 70.1764 79.8166 33.7697 
354 C 1 70.2154 80.1593 35.1027 
403 C 1 70.2434 75.5466 27.5818 
405 C 1 69.8994 77.3167 29.3087 
406 C 1 70.0604 76.2521 30.2856 
407 C 1 70.0396 76.652 31.7084 
408 C 1 70.3498 75.6696 32.6613 
409 C 1 69.7679 78.4627 33.3993 
410 C 1 69.846 77.3934 34.3772 
411 C 1 69.9045 77.7651 35.7745 
466 C 1 70.1467 76.0551 33.9973 
3755 H 2 74.0656 80.2398 31.6644 
3738 O 3 74.4683 80.1316 29.8327 
3753 O 3 74.0264 79.9546 32.5773 
293 C 1 70.6996 80.8771 28.986 
3768 O 3 74.071 80.1915 35.5453 
3739 H 2 73.8796 79.3933 29.676 
3754 H 2 73.5819 79.1074 32.5452 
3770 H 2 73.7636 79.2928 35.6641 
3757 H 2 72.7019 77.4155 33.7288 
3771 O 3 72.9264 77.7187 35.7007 
3756 O 3 72.9546 77.345 32.8083 
3741 O 3 72.9503 77.8615 29.7459 
3742 H 2 72.3459 77.8176 30.4868 
3773 H 2 73.4499 76.92 35.6357 
3758 H 2 73.5128 76.5682 32.7715 
3746 H 2 73.6167 76.3422 29.5735 
3728 H 2 74.1897 75.073 27.7193 
3744 O 3 74.2122 75.6196 29.7722 
3759 O 3 74.6448 75.3528 32.9734 
3760 H 2 74.622 75.2157 33.9204 
3774 O 3 74.475 75.6298 35.9602 
294 C 1 70.9163 81.2062 30.3948 
652 C 1 79.3395 75.1064 33.4146 
647 C 1 79.3909 75.0653 28.3381 
3740 H 2 75.3461 79.7667 29.7204 
3719 H 2 76.8522 79.4298 27.7896 
3766 H 2 75.8963 79.6795 35.7842 
3751 H 2 75.8332 79.5735 32.5715 
3765 O 3 76.7981 79.5833 35.4779 
3735 O 3 76.89 79.4132 29.672 
3736 H 2 77.2674 79.6731 30.5124 
3752 H 2 76.9763 79.2013 33.4916 
3750 O 3 76.7365 79.2568 32.5666 
3737 H 2 76.9147 78.4564 29.6834 
3764 H 2 76.7149 77.6997 35.1147 
3749 H 2 76.9368 77.6017 32.1714 
3775 H 2 75.3896 75.8187 35.7503 
3747 O 3 76.9172 76.6479 32.25 
3748 H 2 77.2164 76.3307 31.3979 
3734 H 2 77.0353 76.2956 28.6393 
3732 O 3 76.7976 76.6386 29.5008 
3763 H 2 76.9153 76.5818 34.1136 
3762 O 3 76.7754 76.7468 35.046 
3733 H 2 75.8538 76.4922 29.5653 
3761 H 2 75.55 75.6032 32.7888 
654 C 1 79.707 75.6278 35.7581 
61 C 1 80.1096 79.0633 27.1646 
62 C 1 79.8475 80.0553 28.1603 
63 C 1 80.1581 78.4347 29.8937 
64 C 1 80.2128 79.0703 32.2488 
93 C 1 80.0023 79.7896 29.5476 
94 C 1 79.6335 80.7467 30.5496 
95 C 1 79.7707 80.3833 31.893 
97 C 1 80.3435 78.7231 33.6627 
98 C 1 80.0211 79.6982 34.6732 
138 C 1 79.4203 80.9327 34.349 
646 C 1 80.1216 77.7414 27.5339 
648 C 1 79.8176 76.0284 29.3325 
649 C 1 79.6964 75.6911 30.6862 
650 C 1 80.0253 76.6672 31.6327 
676 C 1 80.0047 77.4017 28.9399 
677 C 1 80.1703 78.0432 31.2519 
678 C 1 80.0038 76.3197 33.0533 
679 C 1 80.2506 77.3091 34.0342 
680 C 1 80.0893 76.9576 35.4338 
96 C 1 79.2652 81.2225 32.9264 
299 C 1 70.8655 81.3544 35.5083 
183 C 1 74.0106 83.3101 30.0362 
235 C 1 73.3224 82.9324 27.3264 
236 C 1 72.4089 82.5947 28.3733 
237 C 1 72.6841 82.8587 29.7084 
238 C 1 71.8007 82.3184 30.7126 
239 C 1 74.3609 83.2754 31.4385 
240 C 1 73.3976 83.1248 32.4211 
241 C 1 73.7675 83.1623 33.8501 
242 C 1 72.7295 82.881 34.8751 
292 C 1 71.2698 81.7469 28.0078 
296 C 1 72.1314 82.5061 32.0907 
297 C 1 71.4498 81.7866 33.1444 
298 C 1 71.6354 82.0836 34.4977 
181 C 1 74.6725 83.3771 27.6655 
132 C 1 77.3368 82.7699 28.4168 
137 C 1 77.4817 82.8213 33.5454 
136 C 1 78.3111 82.2592 32.5189 
243 C 1 75.4635 83.3479 35.6063 
91 C 1 79.1593 81.2837 27.825 
135 C 1 77.9488 82.4275 31.1561 
133 C 1 76.4066 83.2427 29.3963 
185 C 1 75.7381 83.3068 31.779 
184 C 1 76.7028 83.0418 30.7614 
182 C 1 75.0198 83.4422 29.0639 
187 C 1 75.1374 83.365 34.2384 
92 C 1 78.4581 82.0143 28.8237 
186 C 1 76.1338 83.339 33.2039 
131 C 1 77.0517 82.9786 27.0523 
139 C 1 78.8142 81.7775 35.3232 
134 C 1 78.7502 81.769 30.1719 
188 C 1 77.6869 82.5592 34.9222 
189 C 1 76.7815 82.9571 35.9725 
524 C 1 71.8852 73.7268 37.0074 
525 C 1 72.7073 73.2084 38.039 
527 C 1 71.4133 74.3266 39.7741 
528 C 1 71.0962 74.5777 41.1579 
529 C 1 71.8941 73.9236 42.1538 
576 C 1 74.4012 72.6068 36.3153 
577 C 1 74.0433 72.7864 37.6739 
579 C 1 72.4738 73.3861 39.4413 
580 C 1 73.3206 72.9297 40.481 
581 C 1 72.9813 73.0737 41.8455 
582 C 1 73.91 72.7535 42.8995 
583 C 1 71.5948 74.1838 43.584 
584 C 1 72.2566 73.5069 44.6663 
624 C 1 74.662 72.649 40.1096 
628 C 1 73.5291 72.9266 44.2942 
469 C 1 70.8537 74.6462 37.4244 
578 C 1 74.9787 72.5726 38.7048 
3805 H 2 74.8835 74.9326 41.6692 
626 C 1 75.2899 72.6734 42.517 
621 C 1 76.6908 72.9146 36.9623 
622 C 1 76.3728 72.7653 38.3484 
623 C 1 77.3449 73.1285 39.3285 
625 C 1 75.641 72.6608 41.1328 
627 C 1 76.3115 72.8816 43.5418 
655 C 1 77.9309 73.4993 36.6171 
656 C 1 78.8163 74.1713 37.6017 
657 C 1 78.5152 73.944 38.9956 
658 C 1 79.1922 74.6612 39.9835 
659 C 1 76.945 73.0709 40.7126 
660 C 1 77.8417 73.5524 41.7204 
661 C 1 77.5603 73.3575 43.138 
662 C 1 78.442 73.9608 44.0815 
686 C 1 78.9214 74.3931 41.3489 
688 C 1 79.3112 74.9876 43.6783 
663 C 1 75.884 72.7631 44.9198 
526 C 1 70.7146 75.0533 38.7664 
3803 H 2 71.8773 77.2921 41.5657 
3784 H 2 72.3889 77.6037 39.1742 
531 C 1 70.5745 75.1183 44.0053 
3781 H 2 73.9105 80.4591 37.375 
355 C 1 69.9899 79.1743 36.1519 
359 C 1 70.1977 80.281 40.3002 
412 C 1 69.8966 76.7706 36.7707 
413 C 1 70.0584 79.5347 37.5114 
414 C 1 69.8082 78.583 38.553 
415 C 1 69.7367 79.0194 39.9076 
416 C 1 69.6185 77.9825 40.9616 
417 C 1 70.4353 80.5943 41.6683 
418 C 1 69.9724 79.7192 42.7043 
419 C 1 70.1429 80.0768 44.0608 
468 C 1 70.1929 75.4196 36.4066 
470 C 1 69.8275 77.1759 38.1313 
471 C 1 70.0651 76.2314 39.164 
472 C 1 69.8565 76.6083 40.5146 
473 C 1 70.2842 75.6619 41.5335 
474 C 1 69.6795 78.3644 42.344 
475 C 1 69.7475 77.3224 43.2492 
476 C 1 69.7134 77.6927 44.685 
530 C 1 70.1253 75.9972 42.9195 
3815 H 2 73.4438 80.6268 40.3252 
357 C 1 70.6247 80.7649 37.8995 
3780 O 3 74.0234 80.1592 38.277 
3796 H 2 73.5815 79.8282 43.0135 
3795 O 3 73.5331 79.4756 43.9021 
3782 H 2 74.9716 80.0946 38.3915 
3797 H 2 73.5331 78.5258 43.7837 
3813 O 3 73.7777 80.0841 41.0396 
3814 H 2 73.2985 79.2595 40.9587 
3785 H 2 73.2456 78.6301 38.4639 
3783 O 3 72.7713 77.811 38.3215 
3801 O 3 72.6333 77.6878 41.1319 
3802 H 2 73.3431 77.0599 41.2665 
3787 H 2 73.9142 76.6189 38.48 
358 C 1 70.8009 81.1323 39.2676 
3819 O 3 73.5476 76.8773 43.7599 
3788 H 2 74.6213 75.7874 39.5291 
3786 O 3 74.6821 76.0635 38.6146 
3821 H 2 74.4872 76.6952 43.7459 
3804 O 3 74.5971 75.7457 41.2532 
3820 H 2 73.2042 76.3137 44.4533 
3776 H 2 74.4779 75.4429 36.8989 
3772 H 2 72.7135 77.791 36.6312 
3811 H 2 75.405 79.6499 44.6975 
687 C 1 79.5593 75.1872 42.3147 
3799 H 2 75.6807 79.8569 41.1825 
3798 O 3 76.5572 79.7442 41.5502 
3800 H 2 76.4191 79.7211 42.4971 
3810 O 3 76.2781 79.4014 44.3937 
3778 H 2 77.1287 79.7818 39.3796 
3777 O 3 76.7681 79.7847 38.4929 
3779 H 2 76.7841 78.8661 38.2243 
3809 H 2 76.4055 77.6098 44.012 
3793 H 2 76.7618 78.0322 41.2131 
3790 H 2 77.0927 77.1328 36.9449 
3789 O 3 77.0272 77.2575 37.8916 
3792 O 3 76.7211 77.1735 40.792 
3794 H 2 77.2496 77.2695 39.9997 
3807 O 3 76.1628 76.7324 43.7161 
3791 H 2 76.3223 76.6695 38.163 
682 C 1 79.6578 75.2474 37.1914 
3808 H 2 76.3553 76.7337 42.7784 
100 C 1 79.7672 80.2721 37.0565 
101 C 1 80.2625 78.6015 38.8312 
102 C 1 80.3794 78.2282 40.1967 
103 C 1 80.0823 79.1605 41.2007 
142 C 1 79.9285 79.9753 38.4625 
143 C 1 79.4282 80.8799 39.4252 
144 C 1 79.5879 80.5002 40.7959 
146 C 1 80.2604 78.8535 42.5964 
147 C 1 79.9651 79.8212 43.6034 
681 C 1 80.1688 77.9646 36.4704 
683 C 1 80.0243 76.2111 38.2217 
684 C 1 79.9627 75.831 39.5543 
685 C 1 80.1917 76.8248 40.5675 
689 C 1 79.8877 75.7512 44.7604 
702 C 1 80.187 77.5645 37.8351 
703 C 1 80.146 76.442 41.9544 
704 C 1 80.3818 77.4116 42.9998 
705 C 1 80.2574 77.067 44.4069 
3806 H 2 75.4095 76.1931 41.0161 
196 C 1 79.381 81.054 43.2087 
99 C 1 80.0536 79.3132 36.0528 
3767 H 2 77.3086 80.155 36.0512 
148 C 1 80.0965 79.4513 45.0144 
363 C 1 70.7606 81.2858 44.4201 
244 C 1 74.473 83.3426 36.6168 
246 C 1 73.7756 83.2962 38.9828 
300 C 1 73.1272 82.9564 36.2366 
301 C 1 72.1767 82.6078 37.2324 
302 C 1 72.4403 82.7557 38.6414 
303 C 1 71.6709 82.1762 39.676 
304 C 1 74.2441 83.2619 40.4014 
305 C 1 73.261 83.03 41.3862 
306 C 1 73.6353 83.1155 42.7631 
307 C 1 72.7305 82.664 43.8034 
356 C 1 71.1879 81.5863 36.861 
360 C 1 72.0274 82.3725 41.0075 
361 C 1 71.2946 81.6574 42.0324 
362 C 1 71.5713 81.9044 43.4122 
245 C 1 74.8209 83.3343 37.9839 
145 C 1 79.1577 81.371 41.7982 
250 C 1 75.0358 83.3925 43.1445 
140 C 1 79.1474 81.4894 36.6765 
308 C 1 75.4272 83.3842 44.5185 
141 C 1 78.3535 82.1534 37.6418 
190 C 1 77.1906 82.893 37.322 
191 C 1 76.2046 83.2529 38.3571 
192 C 1 78.6284 81.9603 39.0429 
193 C 1 77.8564 82.6236 40.0247 
194 C 1 78.2013 82.4184 41.4503 
195 C 1 77.3855 82.942 42.5178 
197 C 1 78.7739 81.8319 44.2402 
247 C 1 76.6071 83.1955 39.7183 
248 C 1 75.6152 83.2748 40.78 
249 C 1 76.049 83.3036 42.1691 
251 C 1 77.6677 82.7178 43.8954 
252 C 1 76.7813 83.0889 44.9292 
533 C 1 70.9674 74.614 46.3895 
585 C 1 71.9966 73.658 46.0476 
586 C 1 72.9121 73.1726 47.0492 
588 C 1 71.4972 74.1999 48.8144 
589 C 1 71.2061 74.4241 50.1462 
590 C 1 71.9717 73.7542 51.1787 
629 C 1 74.5421 72.7811 45.3048 
630 C 1 74.2356 72.8386 46.6969 
632 C 1 72.5981 73.3884 48.4217 
633 C 1 73.5235 72.9348 49.4342 
634 C 1 73.114 72.9896 50.7876 
635 C 1 74.1592 72.8404 51.8181 
636 C 1 71.7367 74.092 52.581 
637 C 1 72.5587 73.4291 53.5273 
667 C 1 74.848 72.7306 49.0526 
671 C 1 73.8379 72.8935 53.2099 
587 C 1 70.7939 74.8978 47.7646 
631 C 1 75.2642 72.7304 47.7217 
664 C 1 76.9054 72.9902 45.8671 
665 C 1 76.6414 72.8586 47.3057 
666 C 1 77.5818 73.26 48.3174 
668 C 1 75.8777 72.7193 50.0746 
669 C 1 75.5484 72.6772 51.4674 
670 C 1 76.5758 72.8302 52.4454 
690 C 1 78.1183 73.7065 45.5127 
691 C 1 78.8719 74.3848 46.518 
692 C 1 78.6139 74.1106 47.916 
693 C 1 79.3745 74.825 48.9213 
694 C 1 77.2302 73.0924 49.6988 
695 C 1 78.1298 73.5902 50.6602 
696 C 1 77.8553 73.3439 52.0761 
697 C 1 78.6699 73.9814 53.08 
698 C 1 76.2137 72.8373 53.8466 
710 C 1 79.1867 74.4716 50.2764 
592 C 1 70.8365 75.1034 52.9175 
3838 H 2 73.8421 75.7751 47.2154 
3817 H 2 72.6394 78.7601 45.6604 
3836 H 2 74.5385 81.1924 46.3634 
420 C 1 69.8838 79.0979 45.0926 
3844 H 2 73.9401 80.4467 51.6166 
422 C 1 70.4796 80.7847 46.85 
424 C 1 70.1708 80.1807 49.2136 
477 C 1 69.8597 76.6724 45.648 
478 C 1 69.9132 79.472 46.4774 
479 C 1 69.7276 78.4675 47.4111 
480 C 1 69.7239 78.8538 48.8302 
481 C 1 69.792 77.8652 49.875 
482 C 1 70.2605 80.5541 50.6091 
483 C 1 69.8248 79.6458 51.6116 
484 C 1 69.9677 80.001 53.0013 
532 C 1 70.3977 75.3931 45.3638 
534 C 1 69.8125 77.0306 47.0501 
535 C 1 70.1718 76.0839 48.1045 
536 C 1 70.023 76.4595 49.4963 
537 C 1 70.3668 75.5179 50.5028 
538 C 1 69.7213 78.2683 51.2806 
539 C 1 69.8495 77.2513 52.2671 
540 C 1 69.7899 77.592 53.6507 
591 C 1 70.3167 75.9257 51.8842 
423 C 1 70.7378 81.0429 48.2213 
3830 H 2 74.3377 80.5948 48.715 
3828 O 3 74.4392 80.1598 49.5616 
3843 O 3 74.1031 80.0146 52.4549 
428 C 1 70.5878 81.226 53.3537 
3845 H 2 73.6368 79.1812 52.39 
3834 O 3 74.6917 80.3232 46.7338 
3835 H 2 73.8542 79.8699 46.6367 
3856 H 2 73.1952 78.9971 49.5371 
3816 O 3 72.7626 78.4944 46.5717 
3818 H 2 73.1614 77.626 46.5166 
3857 H 2 72.3749 78.1853 48.5573 
3855 O 3 72.7124 78.1749 49.453 
3848 H 2 72.1772 77.7201 51.6629 
3846 O 3 72.7377 77.7091 52.4388 
3847 H 2 73.3313 76.9719 52.2956 
3850 H 2 73.7231 76.7424 49.4849 
3867 O 3 74.5758 75.8398 52.7762 
3849 O 3 74.0919 75.8598 49.4486 
3837 O 3 73.986 75.9061 46.2782 
3851 H 2 73.9604 75.5084 50.3292 
3868 H 2 74.5673 75.4493 53.6501 
3839 H 2 74.8878 76.2208 46.2156 
485 C 1 69.7362 78.974 53.9895 
3812 H 2 76.8551 79.6045 45.13 
712 C 1 79.5883 75.0177 52.6909 
3829 H 2 75.293 79.7303 49.5099 
206 C 1 80.0704 79.6517 53.9377 
3823 H 2 76.8849 76.48 45.4148 
3833 H 2 76.2297 79.5622 46.9998 
3842 H 2 75.8297 79.7616 52.527 
3831 O 3 77.109 79.1987 47.1042 
3825 O 3 76.9373 79.0878 49.845 
3840 O 3 76.7383 79.4606 52.5215 
3841 H 2 77.025 79.5462 53.4307 
3832 H 2 77.3761 79.4654 47.9838 
3826 H 2 77.0878 79.3759 50.7453 
3827 H 2 76.9932 78.1331 49.886 
3860 H 2 76.8382 77.5744 52.4408 
3824 H 2 77.0107 77.4052 46.6064 
3859 H 2 77.3066 76.4229 51.5766 
3852 O 3 77.0312 76.2835 49.6076 
3853 H 2 77.4475 75.829 48.8753 
3858 O 3 77.0018 76.6314 52.4597 
3822 O 3 76.6919 76.5397 46.3504 
3854 H 2 76.0926 76.2001 49.4396 
3869 H 2 75.4913 76.077 52.6283 
104 C 1 80.1857 78.1135 45.4339 
149 C 1 79.7466 80.4141 45.9841 
150 C 1 80.3912 78.8156 47.7935 
151 C 1 80.346 78.3963 49.1989 
152 C 1 80.1696 79.3882 50.1917 
200 C 1 79.9845 80.1169 47.3936 
201 C 1 79.5317 81.0375 48.4057 
202 C 1 79.6961 80.6668 49.7631 
204 C 1 80.2126 79.0638 51.5506 
205 C 1 79.9381 80.0243 52.5837 
706 C 1 79.7394 75.4456 46.1378 