LAMMPS (7 Aug 2019)
OMP_NUM_THREADS environment is not set. Defaulting to 1 thread. (../comm.cpp:93)
  using 1 OpenMP thread(s) per MPI task
# Thermalize nano tube
#######################################################################MINIMIZATION###############################################################

#---------------------------------------------------------------------INITIALIZATION-------------------------------------------------------------#
variable T equal 300

variable label string C_29_4_11-rebo
log ${label}-therm.lammps
log C_29_4_11-rebo-therm.lammps
