ITEM: TIMESTEP
2338198
ITEM: NUMBER OF ATOMS
5783
ITEM: BOX BOUNDS pp pp pp
0.0000000000000000e+00 1.5000000000000000e+02
0.0000000000000000e+00 1.5000000000000000e+02
0.0000000000000000e+00 2.5000000000000000e+02
ITEM: ATOMS id element type x y z 
125 C 1 66.7638 67.9506 5.45459 
4428 C 1 66.6841 66.7086 5.99704 
4426 C 1 66.8291 68.2151 4.00592 
127 C 1 67.0577 66.0259 7.09362 
135 C 1 68.2293 68.3559 1.98308 
123 C 1 67.0193 68.6717 2.69558 
137 C 1 68.8582 66.2089 3.2463 
4436 C 1 69.1889 67.2803 2.3651 
138 C 1 72.7362 65.2539 3.69216 
139 C 1 70.2058 65.6912 5.2978 
141 C 1 72.6218 66.8068 5.91542 
4438 C 1 69.1601 65.7464 4.44291 
4440 C 1 71.4483 66.0251 5.72909 
4450 C 1 73.703 64.0039 1.21909 
4451 C 1 72.0457 65.7666 2.69508 
4453 C 1 73.4318 64.6914 4.7028 
148 C 1 72.8311 67.4341 0.989603 
136 C 1 71.6903 66.8117 1.74935 
4449 C 1 70.4216 67.3591 1.6471 
4442 C 1 73.7829 66.2125 6.43714 
140 C 1 74.2554 65.0385 5.83181 
149 C 1 74.4352 63.6363 2.32042 
4429 C 1 70.4207 67.8908 7.5998 
143 C 1 74.349 67.0925 7.41489 
147 C 1 73.8635 65.067 0.394354 
128 C 1 72.6168 68.148 6.44477 
114 C 1 70.4563 67.9073 6.25654 
4427 C 1 70.3881 68.3876 4.95134 
4463 C 1 73.5906 68.4213 1.68382 
134 C 1 70.082 68.2871 0.523128 
4443 C 1 73.426 68.1833 7.71916 
161 C 1 75.0412 66.0066 0.434138 
4455 C 1 75.5308 64.6185 6.25432 
4452 C 1 75.5906 64.0721 2.89744 
4462 C 1 76.1565 66.3797 1.05227 
151 C 1 76.6541 65.024 3.18937 
142 C 1 76.6948 65.2834 6.722 
153 C 1 77.7099 65.6132 5.71839 
163 C 1 76.8047 66.1891 2.3221 
165 C 1 78.7275 67.3086 3.54094 
4454 C 1 77.372 65.1164 4.43153 
4456 C 1 78.538 66.7711 5.92126 
4464 C 1 77.6758 67.3385 2.57632 
4466 C 1 79.3489 67.1767 4.77035 
4478 C 1 79.7751 67.9863 1.7361 
175 C 1 79.2149 68.0363 0.426681 
162 C 1 76.7424 67.6933 0.478451 
155 C 1 78.7041 67.7876 6.95408 
4477 C 1 77.3801 68.3882 1.72042 
177 C 1 80.9768 68.1434 2.4176 
167 C 1 80.6947 67.6627 4.94708 
4468 C 1 81.8259 68.4077 5.26299 
185 C 1 81.743 68.1814 0.18757 
4414 C 1 67.035 68.9815 6.3709 
4424 C 1 66.1287 69.5612 2.08495 
99 C 1 66.2894 73.428 6.96137 
100 C 1 67.6634 71.2793 6.9749 
111 C 1 65.6445 72.0118 4.39081 
121 C 1 65.9175 70.7428 1.5319 
4410 C 1 65.1991 73.2335 4.2136 
4412 C 1 66.281 70.9513 4.90944 
4422 C 1 66.3873 71.876 0.895653 
113 C 1 66.9839 70.3323 5.95353 
108 C 1 67.1365 73.1562 2.20277 
4421 C 1 66.4703 74.3404 1.94158 
109 C 1 65.4003 74.6042 4.11794 
4400 C 1 65.898 74.6867 6.65016 
4402 C 1 67.0445 72.521 7.68917 
4401 C 1 68.4634 74.4102 7.60011 
4423 C 1 68.1291 72.3012 2.43847 
133 C 1 68.5764 70.2302 0.39364 
84 C 1 68.4946 74.5615 3.78961 
4399 C 1 68.5459 73.8756 5.01042 
86 C 1 68.6359 73.8637 6.35049 
119 C 1 67.3331 72.5748 0.254178 
115 C 1 67.537 68.9344 7.77836 
4413 C 1 69.0391 71.6766 6.34234 
4434 C 1 68.8263 69.0536 0.928535 
110 C 1 68.8672 71.2759 2.84505 
112 C 1 70.1551 69.2935 4.03299 
4425 C 1 69.5396 70.3534 3.5071 
4441 C 1 72.5163 69.2148 5.67016 
98 C 1 70.1107 72.2643 5.77031 
126 C 1 72.4695 70.5123 5.39235 
4439 C 1 72.6048 71.7593 4.99235 
124 C 1 72.6739 72.801 4.22076 
96 C 1 70.8677 74.1587 4.03145 
4411 C 1 70.7253 73.1917 4.95743 
122 C 1 71.9413 73.3904 1.74862 
4437 C 1 72.5555 73.2593 2.96502 
4435 C 1 71.0282 73.0013 0.872145 
120 C 1 69.8899 72.4581 0.337202 
150 C 1 74.5119 69.0293 2.43413 
4469 C 1 79.3743 68.9687 6.3264 
156 C 1 80.5715 69.3662 7.04568 
4465 C 1 75.5308 69.4971 3.12854 
154 C 1 78.9227 69.4449 5.09465 
4467 C 1 77.871 69.577 4.27997 
152 C 1 76.659 69.6002 3.76855 
164 C 1 77.5277 69.7672 1.86582 
166 C 1 77.8763 72.3665 2.53544 
168 C 1 78.6308 74.2408 4.28844 
170 C 1 79.1948 73.7811 6.84576 
178 C 1 79.8434 71.3205 1.96005 
4479 C 1 77.6741 71.0136 2.29278 
4481 C 1 78.2319 73.4834 3.23203 
4491 C 1 79.7996 70.9412 0.617652 
180 C 1 80.7085 72.0424 4.35472 
4483 C 1 78.6964 74.1427 5.64218 
4493 C 1 80.1822 71.6472 3.17536 
4495 C 1 80.8696 72.9951 5.30355 
4503 C 1 81.1778 73.8299 1.87817 
182 C 1 81.0951 74.041 6.14377 
190 C 1 81.1923 74.9067 2.67974 
188 C 1 81.248 72.619 1.26806 
4480 C 1 82.1957 68.7752 2.89342 
169 C 1 81.811 69.0968 6.46039 
4470 C 1 82.8183 69.9935 7.00801 
179 C 1 82.4872 69.1425 4.25074 
187 C 1 82.8858 69.5621 1.98188 
4482 C 1 83.2952 70.4239 4.65792 
181 C 1 83.5289 70.7805 6.05505 
183 C 1 84.0077 73.2404 7.14878 
189 C 1 83.2192 71.5101 3.64993 
191 C 1 83.1665 74.1774 4.51654 
195 C 1 83.4604 74.1579 2.288 
4484 C 1 83.9689 72.0634 6.46889 
4492 C 1 82.8321 71.0499 2.2278 
4494 C 1 83.113 72.8494 4.06161 
4501 C 1 81.9847 71.472 1.11283 
4502 C 1 83.375 73.0702 1.50468 
193 C 1 82.9287 72.9887 0.240333 
4490 C 1 82.5724 69.2029 0.617437 
106 C 1 66.6475 75.0413 0.503011 
4408 C 1 65.797 75.1756 2.87551 
4397 C 1 68.3642 75.6532 3.09915 
97 C 1 65.3529 75.3371 5.43313 
72 C 1 67.2992 79.0611 7.15884 
85 C 1 65.9634 78.9655 6.36366 
93 C 1 65.4015 78.8715 2.29337 
95 C 1 64.5825 77.407 4.1701 
107 C 1 65.5735 76.4608 2.24027 
4384 C 1 65.7612 80.0512 5.55939 
4386 C 1 65.515 77.6368 6.45727 
4396 C 1 65.0907 77.655 2.90657 
4398 C 1 65.057 76.7535 5.34474 
4394 C 1 66.4477 79.4439 1.60926 
4406 C 1 66.0739 76.4593 0.936856 
91 C 1 67.5737 79.4676 0.941783 
83 C 1 65.9916 81.0913 4.81925 
4385 C 1 68.5821 78.6679 6.38056 
4388 C 1 66.4599 75.6556 7.62363 
87 C 1 66.1361 77.0162 7.5657 
82 C 1 68.3882 76.9908 2.83854 
105 C 1 66.5695 77.5098 0.198958 
4393 C 1 68.7459 80.338 1.43469 
4409 C 1 70.7499 75.1953 3.19531 
92 C 1 69.0281 77.4384 0.4424 
4395 C 1 68.9145 78.2096 2.85258 
94 C 1 70.2973 75.8603 2.11243 
70 C 1 69.5316 78.1422 5.57524 
80 C 1 69.4495 79.4862 2.56397 
58 C 1 70.0803 80.407 6.04921 
68 C 1 71.222 77.4913 3.66635 
4371 C 1 70.2852 80.0818 4.78955 
4381 C 1 72.1663 77.3576 2.72871 
4383 C 1 70.3725 77.6997 4.70147 
56 C 1 70.4494 80.0356 3.42463 
66 C 1 73.0053 77.8792 1.7845 
4379 C 1 73.2753 79.0419 1.05432 
4369 C 1 71.5541 80.6769 2.93901 
4355 C 1 74.9688 80.1757 4.73061 
4407 C 1 69.7962 76.599 1.12865 
4373 C 1 69.9417 80.8055 7.30078 
78 C 1 69.673 80.7666 0.303026 
64 C 1 73.3075 80.1911 0.408761 
40 C 1 75.2456 79.0448 4.08278 
4353 C 1 75.7328 78.3308 3.08163 
14 C 1 79.4436 79.2939 5.87475 
26 C 1 78.4876 79.5059 2.73676 
28 C 1 77.1904 80.5478 4.89054 
38 C 1 76.6204 78.1138 2.11655 
4327 C 1 79.0339 78.4183 4.93606 
4329 C 1 79.5968 80.5595 6.35815 
4339 C 1 79.6856 79.1462 2.14363 
4341 C 1 77.6911 79.9803 3.69287 
6 C 1 80.8923 77.2234 7.22779 
12 C 1 78.9467 77.6256 3.84761 
196 C 1 79.7982 76.2837 1.7403 
4323 C 1 80.4833 75.5476 0.889361 
4351 C 1 77.4397 78.4653 1.16724 
4325 C 1 79.2145 76.8645 2.81906 
24 C 1 80.8452 78.6381 1.784 
36 C 1 78.4047 79.0155 0.483138 
4343 C 1 77.0072 80.9839 6.11937 
4319 C 1 80.7004 76.6941 6.04635 
192 C 1 80.7837 76.3776 4.77683 
4317 C 1 81.0158 75.8456 3.56906 
35 C 1 80.9089 79.6665 0.0507091 
4313 C 1 81.5773 75.0991 6.89948 
4338 C 1 81.2725 80.5688 1.0857 
21 C 1 83.8282 75.4397 0.0932911 
22 C 1 82.5383 77.4051 0.0621032 
15 C 1 81.5494 80.5639 6.77513 
4320 C 1 82.0762 79.6305 5.90139 
4326 C 1 82.5478 80.5391 3.6765 
5 C 1 83.5864 76.1792 6.01096 
11 C 1 83.1899 76.6132 3.74655 
13 C 1 82.7293 78.4431 5.41204 
23 C 1 84.2195 77.6147 1.61723 
25 C 1 83.056 79.2184 3.23231 
184 C 1 82.9903 75.518 7.28317 
4314 C 1 83.4544 77.6453 6.26117 
4318 C 1 82.8784 78.0314 4.06279 
4324 C 1 83.2634 78.6481 1.89524 
4337 C 1 82.0264 78.4211 1.16042 
4496 C 1 83.3441 75.5855 4.8522 
4504 C 1 83.4655 75.3681 2.88105 
7 C 1 83.415 77.9692 7.64645 
4508 C 1 83.798 76.6342 0.652559 
194 C 1 81.4781 75.0318 0.180409 
71 C 1 67.7725 81.5388 7.56582 
4382 C 1 66.9272 81.8525 4.22011 
81 C 1 67.9889 82.0444 3.39529 
4372 C 1 68.2315 82.4858 6.74765 
54 C 1 72.6905 81.3377 2.83631 
42 C 1 74.593 81.2631 5.40214 
4367 C 1 73.9244 81.8045 2.65204 
69 C 1 68.8197 83.2312 5.81862 
4380 C 1 68.9402 81.7394 2.37135 
4378 C 1 70.5769 81.8554 0.729214 
4357 C 1 74.3433 82.3319 6.22465 
4370 C 1 70.0241 83.6588 5.16988 
44 C 1 73.0621 82.8885 6.65545 
57 C 1 72.4514 83.8274 5.72429 
65 C 1 72.3054 83.5585 2.12623 
67 C 1 70.4806 83.629 3.87888 
79 C 1 70.0695 82.4037 1.92408 
4356 C 1 73.3167 84.3572 4.67817 
4358 C 1 71.0386 83.8849 6.15316 
4366 C 1 73.467 83.2624 1.39326 
4368 C 1 70.9456 83.3562 2.5703 
63 C 1 74.0625 82.5861 0.339758 
55 C 1 74.4927 84.8635 4.27868 
59 C 1 70.9946 83.493 7.57306 
77 C 1 71.7149 82.0854 0.0999433 
30 C 1 77.0854 81.4275 7.39575 
52 C 1 75.1069 82.2658 2.20262 
43 C 1 75.4283 83.06 6.76118 
37 C 1 80.6806 81.5365 1.81926 
50 C 1 76.7993 81.9928 0.292679 
41 C 1 77.6277 83.4259 5.20946 
4342 C 1 78.6079 83.2917 4.29069 
39 C 1 79.9128 82.8614 3.6788 
4344 C 1 76.5143 83.2791 5.94886 
16 C 1 79.883 81.8443 6.68474 
4340 C 1 79.7461 82.4974 2.34754 
29 C 1 80.4844 82.9234 5.98133 
51 C 1 78.5155 82.8266 1.75344 
53 C 1 76.8503 84.4177 3.12366 
4330 C 1 80.0062 84.1704 6.56605 
4352 C 1 77.2774 83.4234 2.21599 
4354 C 1 75.7954 84.8152 3.79277 
4365 C 1 76.2682 82.6149 1.59302 
4350 C 1 78.2781 82.0992 0.548199 
4328 C 1 80.9757 82.5836 4.62989 
31 C 1 79.0652 83.8924 7.59783 
27 C 1 81.8548 81.5613 4.25189 
4430 C 1 67.9401 66.4742 8.06391 
4416 C 1 68.2207 67.875 8.47541 
347 C 1 73.4856 67.9901 15.3569 
346 C 1 72.9342 68.0699 13.9945 
359 C 1 73.8927 68.1486 12.9462 
116 C 1 69.6231 68.1624 8.69795 
358 C 1 73.4656 68.2555 11.6078 
130 C 1 73.9739 68.1949 9.34157 
131 C 1 74.4444 68.1825 10.5938 
345 C 1 71.5452 68.3963 13.7061 
357 C 1 72.084 68.405 11.3326 
129 C 1 72.5048 68.4008 9.02451 
118 C 1 71.5801 68.599 10.0165 
344 C 1 71.1214 68.669 12.3622 
4457 C 1 76.6916 66.0605 7.86372 
360 C 1 75.2704 68.4011 13.2641 
4444 C 1 75.6116 67.147 8.01466 
4458 C 1 78.3684 68.1418 8.2392 
144 C 1 77.0627 67.3884 8.7672 
145 C 1 76.904 68.1927 10.0321 
132 C 1 75.8567 68.2698 10.9067 
361 C 1 75.7858 68.4739 14.6231 
371 C 1 76.2044 68.6245 12.2277 
90 C 1 67.6111 73.5167 10.0382 
101 C 1 67.5725 72.4347 9.04499 
306 C 1 67.8597 74.4686 14.8129 
316 C 1 67.806 73.9892 12.3913 
317 C 1 67.8322 73.4975 13.7705 
329 C 1 67.907 73.0281 11.3143 
4415 C 1 67.8574 70.2631 8.18269 
102 C 1 68.1199 71.1068 9.31777 
318 C 1 68.2579 72.1466 14.0496 
89 C 1 67.5323 74.962 9.82078 
330 C 1 68.3085 71.7204 11.5848 
331 C 1 68.6579 71.3075 12.9143 
319 C 1 68.4549 71.7139 15.4225 
103 C 1 68.645 70.7895 10.5433 
117 C 1 70.2336 68.8989 9.77017 
334 C 1 70.7942 68.8168 14.8053 
343 C 1 69.9721 69.4502 12.1721 
332 C 1 69.3765 70.1122 13.2692 
104 C 1 69.5821 69.6652 10.8522 
333 C 1 69.7753 69.8016 14.5781 
4485 C 1 80.0788 73.4528 7.81274 
146 C 1 77.9331 69.1118 10.2538 
375 C 1 79.5924 70.293 15.4418 
362 C 1 77.099 68.9815 14.9055 
157 C 1 78.7481 69.2186 9.10819 
372 C 1 77.3999 69.266 12.566 
158 C 1 79.8715 70.214 9.26211 
159 C 1 80.0131 71.0042 10.5289 
373 C 1 77.8642 69.4353 13.8419 
374 C 1 79.1649 70.0261 14.1312 
381 C 1 78.2697 69.639 11.5009 
382 C 1 79.4039 70.4186 11.694 
383 C 1 79.8277 70.6484 13.0383 
384 C 1 80.5696 71.8792 13.312 
160 C 1 80.7888 72.2132 10.752 
385 C 1 80.8511 72.2351 14.6591 
389 C 1 80.9849 72.6898 12.188 
4471 C 1 80.8076 70.2051 8.26053 
172 C 1 81.2001 72.9885 8.47204 
173 C 1 81.3842 73.1921 9.86455 
386 C 1 81.3317 73.5126 14.9571 
4472 C 1 82.151 72.1368 7.92087 
171 C 1 82.1641 70.7246 8.05873 
391 C 1 81.5563 74.4188 13.9224 
390 C 1 81.5678 73.9973 12.541 
4486 C 1 83.5966 74.266 7.98242 
174 C 1 82.1203 74.3451 10.2742 
217 C 1 81.8918 74.9224 11.5511 
88 C 1 67.5901 75.2177 8.37279 
315 C 1 67.8692 75.4128 12.1508 
4374 C 1 67.7259 80.2511 8.11182 
305 C 1 67.9229 75.8529 14.593 
76 C 1 67.8032 75.8992 10.826 
74 C 1 67.6754 78.207 9.42321 
75 C 1 67.9915 77.3333 10.532 
4387 C 1 66.9795 77.9004 8.24388 
73 C 1 68.209 79.6637 9.30035 
304 C 1 67.9959 76.3327 13.2536 
303 C 1 68.5554 77.6103 13.0129 
302 C 1 68.6243 78.0935 11.6926 
291 C 1 68.7963 77.9777 15.3983 
290 C 1 69.0971 78.4557 14.0615 
62 C 1 69.2021 80.1199 10.2218 
301 C 1 69.2886 79.3633 11.3976 
289 C 1 69.6816 79.7263 13.8168 
278 C 1 70.0366 80.5421 14.9249 
288 C 1 69.9157 80.1389 12.4675 
61 C 1 70.0448 81.1995 9.82017 
4322 C 1 80.95 80.5713 7.9898 
9 C 1 81.1142 79.5182 10.1492 
10 C 1 80.1581 80.5329 10.3201 
222 C 1 80.724 79.7772 15.0484 
232 C 1 80.3481 80.1632 12.7301 
233 C 1 80.1582 80.5386 14.0119 
245 C 1 79.8197 80.8888 11.6359 
4321 C 1 80.8204 78.0169 8.25876 
231 C 1 81.0487 79.0051 12.4021 
221 C 1 81.374 78.5212 14.8064 
207 C 1 81.7184 76.2312 15.5469 
220 C 1 81.4592 78.102 13.4676 
392 C 1 81.706 75.7869 14.208 
219 C 1 81.6823 76.7494 13.1811 
218 C 1 81.9192 76.2917 11.8761 
4316 C 1 82.9654 79.07 8.26547 
4315 C 1 83.139 76.6664 8.30416 
4 C 1 81.4665 78.5755 11.1182 
3 C 1 82.0299 77.2703 10.8895 
2 C 1 82.6033 76.7798 9.77036 
1 C 1 83.0267 75.2068 9.28792 
8 C 1 81.4356 79.3073 8.71557 
287 C 1 70.6914 81.2833 12.1861 
48 C 1 71.0643 81.673 10.7914 
277 C 1 70.9224 81.6441 14.6522 
60 C 1 69.8895 81.6693 8.46808 
4359 C 1 72.3382 83.0013 7.93238 
263 C 1 72.8332 82.9386 15.4929 
276 C 1 71.3071 81.948 13.2753 
4360 C 1 69.9114 83.0395 8.2548 
46 C 1 72.9319 82.8699 9.15838 
47 C 1 72.259 82.5238 10.5047 
275 C 1 72.517 82.7126 13.0483 
274 C 1 72.9899 82.9465 11.7027 
261 C 1 74.7106 83.4013 14.0233 
262 C 1 73.3155 83.1283 14.181 
273 C 1 74.357 83.4658 11.5803 
45 C 1 74.3678 83.2766 9.15972 
34 C 1 74.963 83.6114 10.3598 
249 C 1 76.9756 83.2948 14.8527 
250 C 1 75.6005 83.4129 15.1049 
20 C 1 77.2154 83.4366 11.1177 
4331 C 1 79.3276 82.4314 8.02603 
19 C 1 78.3083 82.6252 10.8372 
17 C 1 79.9045 81.2987 9.0726 
248 C 1 77.5042 83.1329 13.5326 
260 C 1 75.2103 83.4937 12.7195 
33 C 1 76.3812 83.8689 10.1557 
234 C 1 79.263 81.6199 14.3357 
247 C 1 78.5966 82.3198 13.2719 
18 C 1 78.5406 82.0638 9.46323 
32 C 1 76.6941 83.6444 8.73178 
246 C 1 78.9039 81.9814 11.9243 
4345 C 1 77.2807 82.1817 8.49074 
259 C 1 76.6594 83.4669 12.4343 
4332 C 1 77.9089 84.4251 8.06145 
4346 C 1 75.3263 83.445 8.12223 
326 C 1 74.1137 68.0506 20.5208 
337 C 1 73.1037 67.8974 17.7859 
336 C 1 72.5537 68.0836 16.4319 
554 C 1 73.7696 68.2348 22.8962 
325 C 1 72.7348 68.0927 20.2171 
324 C 1 72.224 68.2696 18.88 
338 C 1 74.5411 67.9053 18.1008 
553 C 1 72.3909 68.3488 22.6205 
314 C 1 71.8601 68.4657 21.2691 
335 C 1 71.232 68.6032 16.1264 
327 C 1 74.656 68.1951 21.8169 
348 C 1 74.8711 68.1486 15.653 
339 C 1 75.024 68.1285 19.3976 
349 C 1 75.4746 68.0731 16.9884 
328 C 1 76.0428 68.3195 22.0684 
340 C 1 76.4203 68.4855 19.6796 
341 C 1 76.9291 68.5863 21.001 
350 C 1 76.7683 68.5871 17.2725 
567 C 1 76.5865 68.3728 23.3735 
286 C 1 67.9725 73.4167 21.3364 
295 C 1 67.8199 74.3351 18.6688 
307 C 1 67.8188 73.9506 16.1679 
525 C 1 68.1523 72.8799 22.7036 
296 C 1 68.0834 72.9571 18.9424 
294 C 1 67.8499 74.8735 17.3189 
308 C 1 68.1495 72.5586 16.486 
297 C 1 68.2628 72.5508 20.3025 
285 C 1 67.6408 74.8025 21.0669 
309 C 1 68.2636 72.1401 17.8486 
526 C 1 68.6787 71.6001 22.9567 
298 C 1 68.8673 71.2869 20.5385 
323 C 1 70.9828 68.941 18.6066 
310 C 1 69.0654 70.9754 18.0347 
322 C 1 70.6012 69.2211 17.2563 
299 C 1 69.024 70.7512 21.8286 
313 C 1 70.6281 69.1796 21.0316 
311 C 1 69.3086 70.5508 19.3862 
300 C 1 69.9082 69.6424 22.0933 
312 C 1 70.26 69.5266 19.6445 
321 C 1 69.5741 70.2122 16.9726 
320 C 1 69.2871 70.5479 15.6592 
351 C 1 77.2757 68.8042 18.5726 
363 C 1 77.5653 69.1194 16.2065 
342 C 1 78.1858 69.1234 21.308 
352 C 1 78.483 69.4558 18.8816 
353 C 1 78.9482 69.6923 20.2431 
354 C 1 80.0399 70.6103 20.4473 
355 C 1 80.3352 70.8871 21.8672 
364 C 1 78.7974 69.7617 16.4879 
365 C 1 79.2002 70.0705 17.8079 
366 C 1 80.2891 70.9524 18.1189 
577 C 1 78.6779 69.3121 22.6126 
578 C 1 79.7736 70.1625 22.8966 
367 C 1 80.7103 71.3089 19.4294 
377 C 1 80.8119 71.7287 17.043 
356 C 1 81.1707 71.9986 22.1035 
376 C 1 80.5144 71.3185 15.7024 
368 C 1 81.5216 72.409 19.6989 
378 C 1 81.3571 72.9978 17.3438 
369 C 1 81.5607 72.8583 21.0691 
379 C 1 81.6838 73.3819 18.6709 
387 C 1 81.5449 73.9196 16.3446 
370 C 1 81.8932 74.2286 21.3223 
380 C 1 81.8752 74.7487 18.9279 
413 C 1 81.9714 74.7101 22.6703 
585 C 1 81.4669 72.4133 23.437 
292 C 1 68.1254 76.7768 15.6844 
284 C 1 67.7127 75.2908 19.7221 
272 C 1 67.736 75.7275 22.1345 
293 C 1 68.0439 76.226 17.0325 
271 C 1 68.152 77.1468 21.8453 
283 C 1 67.9654 76.6981 19.4018 
282 C 1 68.2586 77.1505 18.1005 
270 C 1 68.2033 77.5909 20.4877 
498 C 1 68.4971 78.0068 22.9347 
497 C 1 68.9189 79.311 22.6533 
281 C 1 68.8535 78.4267 17.8173 
269 C 1 68.7526 78.8735 20.2465 
280 C 1 69.2076 78.8656 16.4895 
268 C 1 69.076 79.2897 18.8942 
258 C 1 69.1749 79.7222 21.32 
267 C 1 69.8926 80.4757 18.6424 
279 C 1 69.745 80.1409 16.235 
257 C 1 70.124 80.7517 21.0829 
266 C 1 70.2502 80.8886 17.2994 
256 C 1 70.5578 81.0861 19.7473 
206 C 1 80.3279 80.56 21.4732 
223 C 1 80.3712 80.0741 16.4276 
212 C 1 79.948 80.8854 19.1259 
211 C 1 80.6883 79.7038 18.8537 
441 C 1 79.8203 80.7187 22.8373 
210 C 1 80.8513 79.2747 17.5154 
205 C 1 81.1724 79.4285 21.2061 
213 C 1 79.6355 81.2315 20.443 
204 C 1 81.2519 78.9096 19.8544 
200 C 1 81.4961 78.4423 22.1916 
209 C 1 81.4401 78.0553 17.1886 
208 C 1 81.5616 77.6295 15.8573 
203 C 1 81.681 77.5644 19.6056 
197 C 1 81.8782 75.2132 20.2734 
414 C 1 82.0466 76.1598 22.8872 
199 C 1 81.8635 77.0891 21.8893 
198 C 1 81.8108 76.6121 20.6048 
202 C 1 81.7259 77.1286 18.2199 
388 C 1 81.774 75.2659 16.5919 
201 C 1 81.7997 75.7042 17.9223 
244 C 1 70.646 81.4462 22.2168 
265 C 1 71.1865 81.9978 17.1069 
255 C 1 71.5043 82.0739 19.5316 
254 C 1 71.9102 82.5057 18.2719 
243 C 1 71.8074 82.2811 22.0193 
230 C 1 74.4277 83.0106 21.4916 
240 C 1 74.1159 83.0497 19.094 
241 C 1 73.5744 82.8337 20.3746 
242 C 1 72.2366 82.5183 20.6657 
252 C 1 73.7301 83.086 16.6037 
253 C 1 73.2314 83.0663 17.9342 
469 C 1 73.9712 83.0734 22.8704 
470 C 1 72.6205 82.6276 23.0743 
264 C 1 71.5693 82.2809 15.7001 
224 C 1 79.5235 81.2687 16.6907 
251 C 1 75.1477 83.1815 16.4405 
225 C 1 79.257 81.5374 18.1095 
239 C 1 75.4848 83.1622 18.8487 
442 C 1 78.8427 81.6435 23.1302 
214 C 1 78.5967 82.1849 20.7784 
215 C 1 78.0685 82.218 22.0865 
216 C 1 76.8068 82.9017 22.3942 
226 C 1 78.2106 82.4523 18.3962 
227 C 1 77.774 82.642 19.6992 
228 C 1 76.3538 83.0153 19.978 
229 C 1 75.8761 83.041 21.3308 
237 C 1 77.3766 82.8342 17.2639 
238 C 1 76.0258 83.0703 17.5501 
236 C 1 77.7993 82.8223 15.9156 
235 C 1 78.8975 81.9827 15.6356 
543 C 1 73.8306 68.075 26.5732 
555 C 1 74.1991 68.2349 24.2153 
533 C 1 73.4666 68.092 28.9624 
542 C 1 73.2564 68.1468 25.229 
532 C 1 72.9168 68.144 27.6905 
520 C 1 72.5945 68.1719 30.0929 
541 C 1 71.9307 68.4983 25.0515 
534 C 1 74.8614 68.0387 29.223 
531 C 1 71.5392 68.5119 27.4911 
540 C 1 71.5386 68.7197 23.7067 
544 C 1 75.2575 68.1432 26.8195 
535 C 1 75.3486 68.0396 30.5087 
545 C 1 75.7852 68.241 28.1373 
557 C 1 76.1206 68.3393 25.7587 
536 C 1 76.7928 68.2682 30.8122 
556 C 1 75.6324 68.3496 24.4532 
546 C 1 77.0674 68.6656 28.4862 
558 C 1 77.5322 68.5901 26.0415 
547 C 1 77.6009 68.7226 29.7726 
491 C 1 67.9718 74.2552 29.9724 
502 C 1 67.8876 74.2361 26.1529 
503 C 1 67.8806 73.7505 27.4849 
512 C 1 67.986 73.8248 23.752 
513 C 1 68.0254 73.3235 25.0654 
492 C 1 68.28 72.8791 30.188 
490 C 1 67.7305 74.6704 28.6038 
504 C 1 68.2535 72.3887 27.7467 
505 C 1 68.5818 72.0031 29.0695 
514 C 1 68.3105 71.9381 25.3086 
515 C 1 68.5389 71.5052 26.6628 
527 C 1 68.9144 71.1215 24.3071 
519 C 1 71.2785 68.7579 29.8526 
530 C 1 71.1095 68.8228 26.1609 
518 C 1 70.7828 69.0228 28.583 
539 C 1 70.3127 69.3734 23.447 
506 C 1 69.2779 70.792 29.3916 
508 C 1 70.6723 69.4768 30.9437 
507 C 1 69.7611 70.5585 30.7122 
516 C 1 69.1611 70.2148 27.0024 
517 C 1 69.6611 69.9323 28.3682 
528 C 1 69.6758 69.9936 24.5323 
529 C 1 69.908 69.5669 25.9194 
559 C 1 77.9462 68.9122 27.3931 
568 C 1 77.8932 68.8563 23.6534 
569 C 1 78.3093 69.136 24.9741 
548 C 1 78.857 69.3258 29.9952 
560 C 1 79.2018 69.5523 27.6448 
561 C 1 79.652 69.7611 28.9493 
562 C 1 80.6066 70.8483 29.2243 
570 C 1 79.4721 69.9144 25.2481 
571 C 1 79.9477 70.1178 26.5808 
579 C 1 80.1061 70.5539 24.1957 
572 C 1 80.9426 71.1337 26.8774 
563 C 1 80.8661 71.2625 30.5776 
580 C 1 81.1165 71.5253 24.4546 
573 C 1 81.1416 71.6367 28.1569 
581 C 1 81.4079 71.8915 25.8166 
564 C 1 81.5889 72.4214 30.8583 
574 C 1 81.7402 72.8576 28.4628 
575 C 1 81.8355 73.2561 29.8199 
582 C 1 81.9651 73.2165 26.0778 
586 C 1 81.9011 73.7479 23.6936 
583 C 1 82.0816 73.6758 27.4349 
587 C 1 81.9828 74.1589 25.0327 
576 C 1 82.1896 74.6089 30.1682 
511 C 1 67.9423 75.2172 23.494 
480 C 1 67.79 75.1525 31.0419 
501 C 1 67.9468 75.605 25.9209 
478 C 1 67.8844 77.0062 29.4506 
479 C 1 67.9009 76.5765 30.8282 
488 C 1 67.9973 76.5716 26.9599 
489 C 1 67.8377 76.111 28.375 
500 C 1 67.9845 76.0996 24.573 
487 C 1 68.2641 77.9692 26.717 
499 C 1 68.2988 77.4994 24.2689 
477 C 1 68.3099 78.3316 29.1933 
486 C 1 68.4837 78.3838 25.3743 
476 C 1 68.4565 78.8194 27.8228 
464 C 1 68.7529 79.1398 30.2698 
485 C 1 69.0077 79.7067 25.1138 
475 C 1 69.0948 80.0483 27.5167 
484 C 1 69.364 80.0816 23.7759 
462 C 1 69.7951 80.6362 28.6458 
463 C 1 69.5323 80.2969 29.9727 
474 C 1 69.407 80.4953 26.2107 
452 C 1 70.1056 80.9832 31.147 
483 C 1 70.3031 81.1179 23.5791 
419 C 1 80.344 79.7583 27.5947 
428 C 1 80.3901 79.9349 23.8656 
429 C 1 80.1386 80.2488 25.2043 
418 C 1 80.6785 79.4321 26.198 
407 C 1 80.8124 79.483 29.9362 
408 C 1 79.9014 80.612 30.2092 
406 C 1 81.0271 79.0399 28.5968 
420 C 1 79.4274 80.785 27.8277 
427 C 1 81.162 78.7314 23.5541 
421 C 1 79.1418 81.226 29.1883 
430 C 1 79.1236 81.1775 25.5338 
400 C 1 81.296 78.6927 30.9762 
417 C 1 81.3087 78.2106 25.9095 
416 C 1 81.6829 77.914 24.5981 
584 C 1 82.2754 75.1138 27.7182 
405 C 1 81.6941 77.7976 28.2848 
399 C 1 81.7856 77.3736 30.6414 
404 C 1 81.7813 77.3576 26.9042 
415 C 1 82.0012 76.4988 24.2424 
588 C 1 82.1686 75.5409 25.2866 
397 C 1 82.1929 75.5291 29.0966 
398 C 1 81.924 76.889 29.3232 
403 C 1 82.0445 76.0185 26.6191 
473 C 1 70.5437 81.3723 25.971 
461 C 1 70.8909 81.5304 28.3786 
472 C 1 70.9865 81.695 24.6765 
451 C 1 71.2336 81.7732 30.8018 
460 C 1 71.2964 81.862 27.0567 
471 C 1 72.1582 82.3925 24.4022 
450 C 1 71.6495 81.9951 29.5173 
448 C 1 73.4662 82.6904 27.9692 
449 C 1 72.9722 82.551 29.2926 
458 C 1 73.0331 82.6234 25.5471 
459 C 1 72.5885 82.4217 26.8418 
436 C 1 73.8754 82.6334 30.3855 
457 C 1 74.4177 82.9278 25.2762 
447 C 1 74.8299 82.8042 27.7363 
456 C 1 74.872 83.0786 23.9925 
445 C 1 76.7287 82.6383 26.1661 
443 C 1 78.3804 81.8017 24.4841 
435 C 1 75.2402 82.5185 30.1168 
434 C 1 75.7464 82.621 28.8269 
455 C 1 76.32 82.8792 23.7393 
433 C 1 77.1799 82.3539 28.4672 
431 C 1 78.7393 81.4413 26.8323 
432 C 1 77.5792 82.1989 27.1599 
422 C 1 77.9813 81.9477 29.563 
446 C 1 75.3532 82.9082 26.3851 
423 C 1 77.5574 81.9668 30.8854 
444 C 1 77.1762 82.4899 24.7717 
424 C 1 76.2195 82.3983 31.1729 
738 C 1 73.7117 67.7057 36.4825 
739 C 1 74.2655 67.6261 37.7814 
750 C 1 74.1412 67.7496 33.9984 
522 C 1 74.5176 67.8823 31.6294 
521 C 1 73.1335 68.0551 31.4062 
751 C 1 74.6177 67.5305 35.3712 
749 C 1 72.7362 68.0429 33.8334 
510 C 1 72.2167 68.3833 32.4776 
737 C 1 72.3881 68.2254 36.246 
728 C 1 73.3546 67.8049 38.8463 
727 C 1 71.9939 68.4801 38.6571 
736 C 1 71.925 68.4287 34.9088 
726 C 1 71.5924 68.6677 37.275 
523 C 1 75.0895 67.82 32.9501 
740 C 1 75.6797 67.8182 38.041 
752 C 1 76.0037 67.7711 35.6623 
753 C 1 76.5701 67.9434 36.9379 
524 C 1 76.411 68.0672 33.2733 
763 C 1 76.9149 68.1171 34.5519 
537 C 1 77.2744 68.3728 32.1979 
754 C 1 77.9188 68.354 37.2678 
764 C 1 78.2166 68.6528 34.8524 
755 C 1 78.4899 68.5084 38.553 
482 C 1 68.1496 73.2812 32.673 
698 C 1 68.0168 73.961 37.4609 
699 C 1 68.0855 73.4819 38.789 
708 C 1 68.26 73.6204 35.0588 
709 C 1 68.4838 73.172 36.3949 
721 C 1 68.3998 72.7404 33.9639 
481 C 1 67.9464 74.7168 32.3382 
493 C 1 68.4775 72.4669 31.5357 
710 C 1 69.021 71.8886 36.59 
509 C 1 71.0148 69.1257 32.2551 
722 C 1 69.0137 71.5382 34.2571 
711 C 1 69.2885 71.486 37.9487 
494 C 1 69.1987 71.2555 31.8273 
723 C 1 69.349 71.0869 35.5337 
735 C 1 70.8304 69.304 34.7067 
495 C 1 69.5244 70.8041 33.1748 
496 C 1 70.4182 69.7033 33.3802 
712 C 1 69.957 70.2246 38.146 
724 C 1 70.1667 69.9625 35.7318 
725 C 1 70.5356 69.5686 37.0423 
538 C 1 78.5605 68.9583 32.4375 
765 C 1 78.6917 68.8492 36.1671 
773 C 1 78.9893 69.182 33.7737 
550 C 1 80.3215 70.4598 31.6624 
766 C 1 79.8604 69.6439 36.4596 
767 C 1 80.2934 69.9241 37.7948 
774 C 1 80.1797 69.8927 34.0499 
775 C 1 80.5217 70.2899 35.4136 
756 C 1 79.6632 69.2421 38.8694 
551 C 1 80.6864 70.6942 32.9802 
549 C 1 79.2606 69.522 31.3593 
768 C 1 81.0703 71.0592 38.0938 
776 C 1 81.3442 71.4377 35.6625 
552 C 1 81.5088 71.8251 33.2401 
777 C 1 81.5888 71.8617 36.991 
781 C 1 81.8242 72.228 34.612 
565 C 1 81.8382 72.7513 32.2125 
566 C 1 82.1101 74.1158 32.5753 
778 C 1 82.0582 73.1377 37.218 
779 C 1 82.0806 73.5819 38.5649 
782 C 1 82.1131 73.5905 34.9063 
783 C 1 82.301 74.1188 36.1907 
609 C 1 82.1974 74.5233 33.9028 
780 C 1 82.2725 74.9972 38.8941 
707 C 1 68.0563 75.0051 34.805 
697 C 1 67.8217 75.3493 37.2609 
468 C 1 67.8903 75.578 33.4617 
466 C 1 68.0789 77.4452 31.8987 
467 C 1 67.9524 76.9661 33.2104 
684 C 1 67.7858 76.2948 38.3178 
695 C 1 68.092 77.3003 35.7007 
696 C 1 67.9508 75.9085 35.9442 
694 C 1 68.1598 77.8459 34.3467 
683 C 1 68.0795 77.6736 38.0661 
682 C 1 68.2665 78.1805 36.7636 
465 C 1 68.5019 78.7334 31.6269 
693 C 1 68.7812 79.1059 34.0685 
454 C 1 68.9488 79.5349 32.7542 
681 C 1 68.957 79.3939 36.5393 
680 C 1 69.3508 79.7388 35.1995 
671 C 1 69.2635 79.696 38.916 
453 C 1 69.8266 80.5776 32.4684 
670 C 1 69.5138 80.1388 37.5912 
679 C 1 70.3484 80.7469 34.9251 
669 C 1 70.5282 81.0996 37.2673 
440 C 1 70.5895 81.124 33.5809 
402 C 1 80.339 80.1552 32.6113 
615 C 1 80.6135 79.7269 38.7672 
624 C 1 80.6614 79.811 35.0551 
625 C 1 80.319 80.069 36.3863 
637 C 1 80.0461 80.5684 33.9917 
614 C 1 80.9119 79.3362 37.4466 
401 C 1 81.2163 79.1483 32.3635 
409 C 1 79.5944 80.8712 31.5664 
626 C 1 79.3164 81.0723 36.7122 
623 C 1 81.3441 78.582 34.7208 
393 C 1 82.242 75.0862 31.5037 
613 C 1 81.6279 78.1857 37.128 
396 C 1 81.5504 78.2542 33.3485 
612 C 1 81.8845 77.7697 35.8092 
600 C 1 82.0261 77.302 38.1714 
611 C 1 82.1655 76.4071 35.4937 
394 C 1 82.125 76.475 31.7392 
395 C 1 82.0184 76.9013 33.0784 
599 C 1 82.352 75.9342 37.8945 
610 C 1 82.1186 75.9595 34.1135 
784 C 1 82.3039 75.5013 36.538 
668 C 1 71.0535 81.2944 35.9894 
656 C 1 71.4004 81.5351 38.3677 
439 C 1 71.7196 81.9243 33.2864 
426 C 1 74.3672 82.515 32.7616 
437 C 1 73.4523 82.4511 31.7263 
438 C 1 72.0705 82.1713 31.9041 
653 C 1 74.4686 82.5202 36.5223 
654 C 1 73.1007 82.3303 36.7674 
655 C 1 72.6744 82.075 38.1001 
665 C 1 73.9395 82.4906 34.1347 
666 C 1 72.5691 82.1896 34.3876 
667 C 1 72.1575 82.0647 35.71 
652 C 1 74.9489 82.5645 35.1735 
627 C 1 78.8662 81.2679 38.0499 
643 C 1 75.0421 82.2627 38.8646 
638 C 1 78.9571 81.4551 34.3164 
642 C 1 75.4556 82.4473 37.5277 
410 C 1 78.438 81.6479 31.9364 
639 C 1 78.5719 81.7304 35.6603 
411 C 1 78.0727 81.8639 33.2853 
412 C 1 76.7301 82.362 33.4904 
425 C 1 75.7579 82.4627 32.4519 
628 C 1 77.6746 81.9938 38.37 
640 C 1 77.2582 82.2021 35.91 
641 C 1 76.8592 82.3569 37.262 
651 C 1 76.3439 82.4897 34.8616 
717 C 1 73.6185 68.2365 42.605 
729 C 1 73.911 67.8004 40.1855 
945 C 1 73.2351 68.2774 44.992 
946 C 1 74.5827 67.9433 45.2406 
716 C 1 73.0232 68.1004 41.332 
706 C 1 72.7763 68.4372 43.6862 
932 C 1 72.3931 68.6083 46.039 
718 C 1 74.9786 67.8422 42.8784 
715 C 1 71.656 68.6354 41.0457 
947 C 1 75.1472 67.8913 46.5337 
730 C 1 75.3204 67.7417 40.4378 
719 C 1 75.4705 67.7884 44.1981 
720 C 1 76.887 67.9573 44.5284 
731 C 1 75.8779 67.7952 41.7774 
732 C 1 77.288 68.0712 42.0682 
741 C 1 76.2198 67.8447 39.3508 
959 C 1 77.4238 67.909 45.8541 
742 C 1 77.5922 68.2315 39.6586 
733 C 1 77.79 68.1539 43.417 
743 C 1 78.1131 68.3617 40.9664 
960 C 1 78.7058 68.4465 46.0868 
734 C 1 79.0527 68.723 43.6724 
700 C 1 68.731 72.2358 39.0733 
677 C 1 67.933 74.3242 43.5737 
686 C 1 67.9152 74.3873 39.8771 
687 C 1 68.106 73.8861 41.1918 
904 C 1 68.1511 73.3121 46.1859 
678 C 1 68.3207 72.9342 43.8276 
903 C 1 67.8544 74.698 45.9679 
676 C 1 67.8441 74.7902 42.2316 
688 C 1 68.535 72.5586 41.4691 
917 C 1 68.5079 72.4701 45.1559 
689 C 1 68.6641 72.1004 42.7823 
701 C 1 68.9314 71.7749 40.3686 
705 C 1 71.5147 68.9117 43.4147 
714 C 1 71.292 68.9717 39.7237 
931 C 1 71.1837 69.2966 45.8378 
918 C 1 69.206 71.2312 45.4118 
704 C 1 71.0153 69.2196 42.1428 
690 C 1 69.3911 70.8748 43.025 
691 C 1 69.8227 70.5414 44.3039 
692 C 1 70.8088 69.4689 44.5034 
702 C 1 69.6264 70.499 40.5832 
703 C 1 69.9139 70.088 41.9321 
713 C 1 70.1758 69.8302 39.4944 
919 C 1 69.4469 70.7587 46.7311 
744 C 1 79.339 69.0124 41.2426 
969 C 1 79.4148 69.0738 45.0527 
745 C 1 79.8385 69.2208 42.5734 
746 C 1 80.7899 70.2513 42.8756 
757 C 1 80.0516 69.6148 40.1741 
970 C 1 80.4487 70.024 45.2586 
971 C 1 80.6739 70.4442 46.6455 
758 C 1 81.0336 70.6591 40.4602 
747 C 1 81.0898 70.657 44.2004 
4815 O 3 76.7653 71.2616 46.7349 
759 C 1 81.3476 71.0182 41.8232 
769 C 1 81.437 71.4757 39.3695 
748 C 1 81.9057 71.7899 44.5318 
760 C 1 81.9952 72.2217 42.0643 
770 C 1 81.9372 72.7328 39.6295 
761 C 1 82.2373 72.6609 43.3987 
762 C 1 82.4389 74.0211 43.7256 
771 C 1 82.1718 73.0916 40.9664 
977 C 1 82.0295 72.2637 45.8336 
978 C 1 82.4544 73.5798 46.1341 
805 C 1 82.5808 74.4783 45.0467 
772 C 1 82.2909 74.5001 41.3164 
589 C 1 82.3872 74.9912 42.6462 
672 C 1 68.3816 78.5454 39.157 
664 C 1 67.7789 75.2218 44.6791 
662 C 1 67.9884 77.1012 43.1001 
663 C 1 67.9588 76.6067 44.4349 
674 C 1 67.8015 76.6951 40.6806 
675 C 1 67.8186 76.1829 42.0154 
685 C 1 67.8321 75.7741 39.6336 
890 C 1 68.2522 77.4435 45.5134 
673 C 1 68.2552 78.0319 40.4678 
661 C 1 68.493 78.4337 42.8795 
891 C 1 68.1555 76.9113 46.8265 
660 C 1 68.8138 78.7926 41.5627 
889 C 1 68.9292 78.678 45.2895 