ITEM: TIMESTEP
12000000
ITEM: NUMBER OF ATOMS
5084
ITEM: BOX BOUNDS pp pp pp
0.0000000000000000e+00 1.5000000000000000e+02
0.0000000000000000e+00 1.5000000000000000e+02
0.0000000000000000e+00 2.8837799999999999e+02
ITEM: ATOMS id element type x y z 
265 C 1 71.414 73.998 0.032 
266 C 1 71.148 74.252 1.413 
267 C 1 71.92 73.601 2.422 
269 C 1 70.671 74.812 4.174 
271 C 1 71.084 74.318 6.564 
321 C 1 73.494 72.859 0.669 
322 C 1 73.144 72.971 2.05 
323 C 1 74.123 72.722 3.059 
324 C 1 71.625 73.82 3.803 
325 C 1 72.471 73.267 4.812 
326 C 1 72.151 73.45 6.192 
327 C 1 73.057 73.003 7.202 
328 C 1 70.841 74.594 7.945 
329 C 1 71.554 73.878 8.954 
377 C 1 74.855 72.66 0.297 
381 C 1 73.761 72.791 4.44 
382 C 1 74.763 72.662 5.449 
383 C 1 74.396 72.687 6.83 
385 C 1 72.718 73.146 8.582 
378 C 1 75.862 72.742 1.306 
379 C 1 75.498 72.69 2.687 
380 C 1 76.488 72.892 3.696 
384 C 1 75.407 72.681 7.839 
433 C 1 79.267 74.907 0.191 
434 C 1 77.174 73.156 0.935 
435 C 1 78.045 73.669 1.944 
436 C 1 77.74 73.463 3.325 
437 C 1 78.542 74.077 4.334 
438 C 1 76.133 72.797 5.077 
439 C 1 77.091 73.118 6.086 
440 C 1 76.75 72.98 7.467 
441 C 1 77.662 73.415 8.476 
490 C 1 79.045 74.614 1.572 
494 C 1 78.264 73.836 5.714 
495 C 1 78.986 74.543 6.724 
496 C 1 78.739 74.27 8.104 
105 C 1 70.029 79.965 0.51 
109 C 1 70.55 80.936 4.652 
154 C 1 69.678 78.635 0.138 
155 C 1 69.646 77.625 1.147 
156 C 1 70.18 80.301 1.891 
157 C 1 69.822 79.356 2.9 
158 C 1 69.931 79.707 4.281 
159 C 1 69.691 78.726 5.29 
160 C 1 70.767 81.233 6.033 
161 C 1 70.221 80.383 7.042 
162 C 1 70.401 80.704 8.423 
209 C 1 69.91 76.275 0.775 
210 C 1 70.321 75.352 1.784 
211 C 1 69.635 77.993 2.528 
212 C 1 69.725 76.986 3.537 
213 C 1 69.67 77.35 4.918 
214 C 1 69.881 76.362 5.927 
215 C 1 69.756 79.088 6.67 
216 C 1 69.636 78.085 7.679 
268 C 1 70.151 75.678 3.165 
270 C 1 70.463 75.115 5.555 
272 C 1 69.783 76.717 7.308 
273 C 1 70.112 75.761 8.317 
3651 O 3 73.1905 79.4386 7.69298 
3624 O 3 73.8338 80.0242 2.05376 
3626 H 2 73.7755 79.9994 3.00886 
3638 H 2 73.3329 80.2857 5.57098 
3636 O 3 73.4324 79.8152 4.74335 
3653 H 2 73.0778 78.4991 7.54862 
3637 H 2 73.155 78.9206 4.941 
3629 H 2 73.0451 78.5622 1.85941 
3628 H 2 72.3787 77.6206 2.83984 
3627 O 3 72.6895 77.6768 1.93626 
3639 O 3 72.7051 77.2865 4.6589 
3654 O 3 72.8778 76.8002 7.38517 
3640 H 2 72.287 77.2269 5.5179 
3652 H 2 74.1115 79.6037 7.49097 
3625 H 2 74.7699 79.9501 1.86844 
3655 H 2 73.7699 76.4589 7.44829 
3641 H 2 73.3709 76.5989 4.66777 
3656 H 2 72.5261 76.7181 8.27163 
5078 H 2 73.664 76.3538 2.03916 
3644 H 2 74.7177 75.601 3.76357 
3642 O 3 74.8476 75.5506 4.71058 
5076 O 3 74.3837 75.7266 2.10942 
5077 H 2 74.4127 75.2978 1.25411 
5041 H 2 73.3072 80.1842 0.0997306 
5068 H 2 72.504 77.2621 0.179585 
3666 O 3 75.3013 75.5165 7.41369 
3667 H 2 75.1482 75.3785 6.47895 
3649 H 2 75.143 79.9388 4.72175 
3622 H 2 76.6689 79.8636 2.86671 
3663 O 3 75.9203 79.7926 7.47221 
3621 O 3 76.6268 79.5686 1.95707 
3650 H 2 76.1806 80.0802 5.81505 
3648 O 3 76.0853 79.8879 4.88222 
3623 H 2 76.8806 78.6464 1.99189 
3664 H 2 76.1656 78.8798 7.62304 
3646 H 2 76.798 78.1098 4.89095 
3660 O 3 77.1894 77.4269 7.62719 
3661 H 2 77.7481 77.4497 6.85025 
3647 H 2 77.2397 77.1009 3.85225 
3645 O 3 77.1696 77.2326 4.79774 
3630 O 3 77.0784 76.7691 2.04162 
3631 H 2 76.1827 76.4425 1.95556 
3643 H 2 75.6968 75.9667 4.85882 
3668 H 2 75.9124 76.2523 7.45071 
1 C 1 80.209 78.477 0.457 
2 C 1 80.015 79.469 1.466 
3 C 1 80.217 78.386 5.608 
4 C 1 79.455 80.726 1.094 
6 C 1 80.107 79.113 2.847 
7 C 1 79.795 80.073 3.856 
8 C 1 79.929 79.731 5.236 
9 C 1 79.503 80.647 6.246 
10 C 1 80.234 78.018 6.989 
11 C 1 80.127 79.023 7.998 
22 C 1 79.678 80.323 7.626 
23 C 1 79.143 81.181 8.635 
489 C 1 80.165 77.102 0.828 
491 C 1 79.605 75.455 2.581 
492 C 1 79.42 75.137 3.962 
493 C 1 79.874 76.039 4.971 
544 C 1 80.093 76.741 2.209 
545 C 1 80.23 77.742 3.218 
546 C 1 80.202 77.375 4.599 
547 C 1 79.729 75.701 6.352 
548 C 1 80.071 76.652 7.361 
549 C 1 79.968 76.299 8.742 
3662 H 2 77.7762 77.1663 8.33712 
3632 H 2 77.4138 76.7889 1.14532 
3665 H 2 75.9787 80.2025 8.33521 
5060 H 2 76.3912 80.0089 0.122133 
38 C 1 74.554 83.245 3.378 
65 C 1 73.826 83.142 0.616 
66 C 1 72.863 82.837 1.625 
67 C 1 73.206 82.969 3.006 
68 C 1 72.287 82.55 4.015 
69 C 1 74.922 83.259 4.759 
70 C 1 73.916 83.16 5.768 
71 C 1 74.28 83.218 7.148 
72 C 1 73.294 82.999 8.157 
106 C 1 71.677 82.14 1.253 
107 C 1 70.943 81.446 2.262 
108 C 1 71.194 81.714 3.643 
110 C 1 72.612 82.723 5.396 
111 C 1 71.75 82.196 6.405 
112 C 1 72.052 82.406 7.786 
113 C 1 71.26 81.778 8.795 
5 C 1 78.848 81.533 2.103 
15 C 1 77.48 82.608 0.351 
16 C 1 77.796 82.42 1.731 
17 C 1 76.898 82.882 2.74 
18 C 1 79.087 81.253 3.484 
19 C 1 78.386 81.981 4.493 
20 C 1 78.657 81.732 5.874 
21 C 1 77.873 82.37 6.883 
36 C 1 75.198 83.253 0.988 
37 C 1 75.564 83.222 2.369 
39 C 1 77.235 82.734 4.121 
40 C 1 76.287 83.084 5.13 
41 C 1 76.639 82.978 6.511 
42 C 1 75.656 83.21 7.52 
43 C 1 78.172 82.155 8.264 
73 C 1 76.018 83.147 8.901 
330 C 1 71.279 74.123 10.335 
331 C 1 72.073 73.499 11.344 
333 C 1 70.783 74.666 13.097 
334 C 1 70.564 74.962 14.477 
335 C 1 71.213 74.187 15.486 
386 C 1 73.672 72.812 9.591 
387 C 1 73.318 72.912 10.972 
388 C 1 74.305 72.697 11.981 
389 C 1 71.771 73.708 12.725 
390 C 1 72.635 73.185 13.734 
391 C 1 72.309 73.356 15.115 
392 C 1 73.231 72.941 16.124 
393 C 1 70.96 74.454 16.867 
394 C 1 71.697 73.763 17.876 
446 C 1 73.941 72.754 13.362 
447 C 1 74.947 72.66 14.371 
448 C 1 74.58 72.672 15.752 
450 C 1 72.886 73.071 17.505 
442 C 1 75.039 72.661 9.22 
443 C 1 76.043 72.777 10.229 
444 C 1 75.681 72.712 11.609 
445 C 1 76.663 72.949 12.619 
449 C 1 75.59 72.7 16.761 
498 C 1 77.34 73.237 9.857 
499 C 1 78.192 73.779 10.866 
500 C 1 77.894 73.563 12.247 
501 C 1 78.675 74.205 13.256 
502 C 1 76.311 72.842 13.999 
503 C 1 77.257 73.196 15.008 
504 C 1 76.921 73.046 16.389 
505 C 1 77.818 73.512 17.398 
551 C 1 79.159 74.759 10.494 
555 C 1 78.405 73.954 14.637 
556 C 1 79.102 74.686 15.646 
557 C 1 78.865 74.404 17.027 
3671 H 2 72.6057 79.556 10.1802 
3670 H 2 72.9975 79.45 11.6387 
3686 H 2 72.8072 79.5388 14.4364 
163 C 1 69.963 79.794 9.432 
167 C 1 70.449 80.782 13.575 
217 C 1 69.658 78.452 9.06 
218 C 1 69.66 77.442 10.069 
219 C 1 70.102 80.134 10.813 
220 C 1 69.777 79.177 11.822 
221 C 1 69.874 79.532 13.203 
222 C 1 69.667 78.543 14.212 
223 C 1 70.656 81.087 14.955 
224 C 1 70.14 80.218 15.964 
225 C 1 70.308 80.545 17.345 
274 C 1 69.971 76.101 9.698 
275 C 1 70.414 75.193 10.707 
276 C 1 69.637 77.809 11.45 
277 C 1 69.762 76.806 12.459 
278 C 1 69.694 77.168 13.84 
279 C 1 69.94 76.188 14.849 
280 C 1 69.72 78.907 15.593 
281 C 1 69.635 77.901 16.602 
282 C 1 69.644 78.268 17.983 
332 C 1 70.233 75.513 12.087 
336 C 1 69.829 76.538 16.23 
337 C 1 70.191 75.595 17.239 
3669 O 3 73.3049 79.2457 10.7556 
3699 O 3 73.2625 79.4136 16.4232 
3684 O 3 73.0768 79.5227 13.518 
3703 H 2 72.6783 77.6764 16.0927 
3689 H 2 72.645 77.7835 13.1222 
3673 H 2 73.1344 77.4726 10.2262 
3687 O 3 72.8442 76.8484 13.0767 
3704 H 2 72.847 76.7825 14.8826 
3702 O 3 72.8204 76.7644 15.8393 
3688 H 2 72.5956 76.5929 12.1884 
3672 O 3 72.963 76.5383 10.1084 
3685 H 2 73.9833 79.8298 13.5286 
3674 H 2 73.8315 76.137 10.0777 
3700 H 2 74.1781 79.6566 16.2858 
3677 H 2 74.5723 76.052 13.0579 
3692 H 2 74.3925 76.2564 15.9673 
3701 H 2 73.1208 79.5332 17.3623 
3683 H 2 74.9312 79.8106 10.1982 
3658 H 2 75.6943 75.3775 9.35347 
3691 H 2 75.3742 75.3615 15.2412 
3675 O 3 75.4532 75.6774 13.0565 
3676 H 2 75.5248 75.236 12.2101 
3690 O 3 75.2975 75.9458 15.9955 
3657 O 3 75.6101 75.7154 10.245 
3682 H 2 75.9297 80.4227 11.1575 
3681 O 3 75.8181 80.168 10.2415 
3698 H 2 75.9863 80.3954 14.0743 
3708 O 3 76.0267 79.9622 16.0561 
3696 O 3 75.8992 79.9953 13.2091 
3707 H 2 77.2152 77.7062 17.1356 
3709 H 2 76.4968 79.1431 15.9006 
3697 H 2 76.2292 79.104 13.3226 
3680 H 2 76.7365 78.6133 10.377 
3695 H 2 77.4647 77.4401 14.411 
3705 O 3 77.2369 77.6766 16.1791 
3693 O 3 77.2927 77.5122 13.4722 
3679 H 2 77.1895 77.9103 11.6388 
3678 O 3 77.2057 77.8378 10.6845 
3694 H 2 76.847 76.6957 13.2465 
3706 H 2 76.4576 77.1764 15.9367 
3659 H 2 76.3468 76.3186 10.3437 
12 C 1 80.188 78.66 9.379 
13 C 1 79.959 79.644 10.388 
14 C 1 80.199 78.569 14.53 
24 C 1 79.356 80.881 10.016 
26 C 1 80.064 79.292 11.769 
27 C 1 79.718 80.241 12.778 
28 C 1 79.865 79.903 14.159 
29 C 1 79.407 80.804 15.168 
30 C 1 80.229 78.202 15.911 
31 C 1 80.087 79.202 16.92 
51 C 1 79.593 80.487 16.549 
497 C 1 79.37 75.059 9.113 
550 C 1 80.191 77.284 9.751 
552 C 1 79.689 75.618 11.503 
553 C 1 79.515 75.294 12.884 
554 C 1 79.938 76.212 13.893 
597 C 1 80.132 76.921 11.132 
598 C 1 80.234 77.926 12.141 
599 C 1 80.219 77.559 13.521 
600 C 1 79.805 75.869 15.274 
601 C 1 80.113 76.831 16.283 
602 C 1 80.022 76.475 17.664 
3710 H 2 76.2355 80.1905 16.962 
3715 H 2 75.6432 75.423 18.009 
76 C 1 74.371 83.229 12.3 
114 C 1 73.647 83.1 9.538 
115 C 1 72.695 82.763 10.547 
116 C 1 73.034 82.906 11.928 
117 C 1 72.129 82.456 12.937 
118 C 1 74.738 83.255 13.681 
119 C 1 73.737 83.122 14.69 
120 C 1 74.098 83.193 16.071 
121 C 1 73.12 82.939 17.08 
164 C 1 71.534 82.024 10.176 
165 C 1 70.824 81.305 11.185 
166 C 1 71.066 81.582 12.565 
168 C 1 72.448 82.64 14.318 
169 C 1 71.605 82.083 15.327 
170 C 1 71.899 82.304 16.708 
171 C 1 71.13 81.649 17.717 
44 C 1 77.317 82.693 9.273 
52 C 1 79.029 81.325 17.558 
79 C 1 76.464 83.034 15.433 
78 C 1 76.108 83.128 14.052 
77 C 1 77.067 82.811 13.043 
75 C 1 75.381 83.24 11.291 
48 C 1 78.244 82.099 13.415 
46 C 1 76.726 82.947 11.663 
45 C 1 77.64 82.517 10.654 
47 C 1 78.97 81.395 12.406 
49 C 1 78.524 81.859 14.796 
80 C 1 75.473 83.232 16.442 
122 C 1 75.837 83.182 17.823 
50 C 1 77.718 82.469 15.805 
81 C 1 78.025 82.265 17.186 
25 C 1 78.722 81.667 11.025 
74 C 1 75.014 83.259 9.91 
395 C 1 71.414 73.998 19.257 
396 C 1 72.23 73.402 20.266 
398 C 1 70.9 74.524 22.019 
399 C 1 70.671 74.812 23.4 
400 C 1 71.346 74.06 24.409 
451 C 1 73.851 72.772 18.514 
452 C 1 73.494 72.859 19.894 
453 C 1 74.488 72.679 20.903 
454 C 1 71.92 73.601 21.647 
455 C 1 72.802 73.108 22.656 
456 C 1 72.471 73.267 24.037 
457 C 1 73.406 72.885 25.046 
458 C 1 71.084 74.318 25.789 
459 C 1 71.845 73.654 26.798 
510 C 1 74.123 72.722 22.284 
512 C 1 74.763 72.662 24.674 
514 C 1 73.057 73.003 26.427 
506 C 1 75.223 72.668 18.142 
507 C 1 76.222 72.818 19.151 
508 C 1 75.862 72.742 20.532 
509 C 1 76.836 73.012 21.541 
511 C 1 75.131 72.663 23.293 
513 C 1 75.772 72.726 25.683 
559 C 1 77.502 73.323 18.779 
560 C 1 78.335 73.895 19.788 
561 C 1 78.045 73.669 21.169 
562 C 1 78.803 74.337 22.178 
563 C 1 76.488 72.892 22.922 
564 C 1 77.421 73.279 23.931 
565 C 1 77.091 73.118 25.311 
566 C 1 77.97 73.615 26.321 
604 C 1 79.267 74.907 19.416 
608 C 1 78.542 74.077 23.559 
609 C 1 79.213 74.832 24.568 
610 C 1 78.986 74.543 25.949 
3761 H 2 72.6799 75.9329 24.6652 
226 C 1 69.902 79.62 18.354 
228 C 1 70.711 81.16 20.107 
230 C 1 70.354 80.625 22.497 
283 C 1 69.681 77.259 18.992 
284 C 1 70.029 79.965 19.735 
285 C 1 69.738 78.998 20.744 
286 C 1 69.822 79.356 22.125 
287 C 1 69.65 78.36 23.134 
288 C 1 70.55 80.936 23.878 
289 C 1 70.065 80.05 24.887 
290 C 1 70.221 80.383 26.267 
338 C 1 70.039 75.93 18.62 
339 C 1 70.513 75.038 19.629 
340 C 1 69.646 77.625 20.372 
341 C 1 69.805 76.627 21.381 
342 C 1 69.725 76.986 22.762 
343 C 1 70.004 76.015 23.771 
344 C 1 69.691 78.726 24.515 
345 C 1 69.641 77.717 25.524 
346 C 1 69.636 78.085 26.905 
397 C 1 70.321 75.352 21.01 
401 C 1 69.881 76.362 25.152 
402 C 1 70.276 75.432 26.161 
3727 H 2 73.2649 79.2692 20.2544 
3726 O 3 73.4665 79.2934 19.319 
3759 O 3 73.0517 76.4785 25.3583 
3744 O 3 73.2993 79.0967 22.0661 
3746 H 2 73.1185 79.3789 22.9627 
3760 H 2 73.997 76.346 25.2869 
3736 H 2 73.0955 77.398 22.0761 
3735 O 3 73.1582 76.4537 21.9324 
3737 H 2 72.6644 76.3002 21.1269 
3732 O 3 72.9373 76.6949 18.9473 
3733 H 2 72.8822 77.6432 19.0659 
3728 H 2 74.3752 79.5913 19.2769 
3745 H 2 74.1883 79.4059 21.8919 
3721 H 2 74.8743 75.8668 21.874 
3716 H 2 74.4596 76.0644 18.7014 
3749 H 2 73.0967 78.1652 25.1724 
3747 O 3 73.0384 79.1034 24.9916 
3748 H 2 72.6797 79.4807 25.7949 
3742 H 2 74.8371 79.5941 24.7957 
3734 H 2 72.6029 76.5438 18.0631 
3720 O 3 75.829 75.8163 21.8271 
3714 O 3 75.3416 75.7301 18.864 
3766 H 2 75.9933 75.5552 23.8165 
3765 O 3 75.9037 75.8179 24.7326 
3767 H 2 76.4256 76.617 24.8052 
3730 H 2 75.4932 80.6134 22.4005 
3729 O 3 75.6482 80.2501 21.5286 
3722 H 2 76.0059 75.3926 20.9872 
3752 H 2 77.4245 78.4047 25.8122 
3750 O 3 77.2685 78.1252 24.9101 
3711 O 3 76.0134 80.0644 18.9033 
3712 H 2 76.0767 80.3337 19.8196 
3713 H 2 76.5928 79.3055 18.8356 
3731 H 2 76.1748 79.4663 21.6852 
3717 O 3 77.211 77.6097 19.0353 
3718 H 2 77.3255 77.8402 19.9572 
3743 H 2 75.7706 80.7787 24.9274 
3741 O 3 75.5276 80.0688 24.333 
3724 H 2 77.8316 78.0621 22.6106 
3723 O 3 77.1965 78.0911 21.895 
3725 H 2 76.631 77.3335 22.0453 
3719 H 2 76.6069 76.8673 19.0467 
3751 H 2 76.8055 78.8601 24.5079 
32 C 1 80.16 78.842 18.301 
33 C 1 79.898 79.818 19.31 
34 C 1 80.232 78.11 21.063 
35 C 1 80.175 78.751 23.453 
53 C 1 79.252 81.033 18.938 
55 C 1 80.015 79.469 20.691 
56 C 1 79.636 80.405 21.7 
57 C 1 79.795 80.073 23.081 
58 C 1 79.305 80.957 24.09 
59 C 1 80.217 78.386 24.833 
60 C 1 80.04 79.38 25.843 
89 C 1 79.503 80.647 25.471 
558 C 1 79.468 75.215 18.036 
603 C 1 80.211 77.467 18.673 
605 C 1 79.768 75.785 20.425 
606 C 1 79.605 75.455 21.806 
607 C 1 79.996 76.386 22.815 
611 C 1 79.561 75.374 26.958 
641 C 1 80.165 77.102 20.054 
642 C 1 80.23 77.742 22.444 
643 C 1 79.874 76.039 24.196 
644 C 1 80.149 77.011 25.205 
645 C 1 80.071 76.652 26.586 
3773 H 2 76.1756 75.8289 26.6177 
123 C 1 74.83 83.258 18.832 
125 C 1 74.189 83.206 21.222 
172 C 1 73.47 83.053 18.46 
173 C 1 72.53 82.682 19.47 
174 C 1 72.863 82.837 20.85 
175 C 1 71.975 82.356 21.859 
176 C 1 74.554 83.245 22.603 
177 C 1 73.558 83.077 23.612 
178 C 1 73.916 83.16 24.993 
179 C 1 72.948 82.873 26.002 
227 C 1 71.395 81.904 19.098 
229 C 1 70.943 81.446 21.488 
231 C 1 72.287 82.55 23.24 
232 C 1 71.464 81.965 24.249 
233 C 1 71.75 82.196 25.63 
234 C 1 71.004 81.514 26.639 
54 C 1 78.591 81.796 19.948 
82 C 1 77.151 82.773 18.195 
83 C 1 77.48 82.608 19.576 
84 C 1 76.552 83.006 20.585 
85 C 1 78.848 81.533 21.328 
86 C 1 78.099 82.211 22.337 
87 C 1 78.386 81.981 23.718 
88 C 1 77.56 82.563 24.727 
90 C 1 78.91 81.465 26.48 
124 C 1 75.198 83.253 20.213 
126 C 1 76.898 82.882 21.966 
127 C 1 75.928 83.165 22.975 
128 C 1 76.287 83.084 24.356 
129 C 1 75.29 83.247 25.365 
130 C 1 77.873 82.37 26.108 
180 C 1 75.656 83.21 26.745 
404 C 1 70.617 74.886 28.551 
460 C 1 71.554 73.878 28.179 
461 C 1 72.389 73.311 29.188 
463 C 1 71.021 74.386 30.941 
464 C 1 70.783 74.666 32.322 
465 C 1 71.483 73.938 33.331 
515 C 1 74.032 72.737 27.436 
516 C 1 73.672 72.812 28.817 
517 C 1 74.672 72.666 29.826 
518 C 1 72.073 73.499 30.569 
519 C 1 72.972 73.037 31.578 
520 C 1 72.635 73.185 32.959 
521 C 1 73.583 72.835 33.968 
522 C 1 71.213 74.187 34.712 
523 C 1 71.996 73.549 35.721 
571 C 1 74.305 72.697 31.206 
573 C 1 74.947 72.66 33.596 
575 C 1 73.231 72.941 35.349 
567 C 1 75.407 72.681 27.064 
568 C 1 76.4 72.866 28.073 
569 C 1 76.043 72.777 29.454 
570 C 1 77.006 73.081 30.463 
572 C 1 75.315 72.673 32.216 
574 C 1 75.953 72.758 34.605 
612 C 1 77.662 73.415 27.701 
613 C 1 78.474 74.015 28.71 
614 C 1 78.192 73.779 30.091 
615 C 1 78.926 74.473 31.1 
616 C 1 76.663 72.949 31.844 
617 C 1 77.582 73.368 32.853 
618 C 1 77.257 73.196 34.234 
619 C 1 78.119 73.723 35.243 
620 C 1 75.59 72.7 35.986 
651 C 1 78.675 74.205 32.481 
652 C 1 79.319 74.983 33.49 
653 C 1 79.102 74.686 34.871 
3794 H 2 72.7717 76.6585 27.103 
3792 O 3 73.1572 76.8233 27.9635 
3776 H 2 73.5249 78.7619 27.8864 
291 C 1 69.847 79.444 27.276 
293 C 1 70.602 81.012 29.029 
295 C 1 70.264 80.464 31.419 
347 C 1 69.709 77.077 27.914 
348 C 1 69.963 79.794 28.657 
349 C 1 69.705 78.817 29.666 
350 C 1 69.777 79.177 31.047 
351 C 1 69.639 78.177 32.056 
352 C 1 70.449 80.782 32.8 
353 C 1 69.995 79.88 33.809 
354 C 1 70.14 80.218 35.19 
403 C 1 70.112 75.761 27.542 
405 C 1 69.66 77.442 29.295 
406 C 1 69.854 76.45 30.304 
407 C 1 69.762 76.806 31.684 
408 C 1 70.075 75.845 32.694 
409 C 1 69.667 78.543 33.437 
410 C 1 69.652 77.533 34.446 
411 C 1 69.635 77.901 35.827 
462 C 1 70.414 75.193 29.932 
466 C 1 69.94 76.188 34.074 
467 C 1 70.367 75.272 35.083 
3763 H 2 73.2467 77.1333 29.7972 
3762 O 3 73.3822 77.3421 30.7215 
3764 H 2 73.4059 78.2985 30.7505 
3770 H 2 73.15 76.5415 32.5968 
3768 O 3 73.6666 76.5761 33.4019 
3793 H 2 74.03 76.4335 27.9142 
3769 H 2 74.5698 76.4454 33.1132 
3806 H 2 73.2369 78.7786 33.5868 
3775 H 2 73.7076 80.1182 28.5336 
3774 O 3 73.7576 79.6693 27.6897 
3807 O 3 74.4103 80.1229 30.4148 
3805 H 2 73.4703 80.2228 33.9764 
3804 O 3 73.5141 79.6231 33.2316 
3808 H 2 74.039 80.4124 31.2482 
3832 H 2 71.8122 77.2739 35.7134 
3800 H 2 74.3733 75.5446 34.8812 
3831 O 3 72.66 77.574 36.0412 
3798 O 3 74.6824 75.5631 35.787 
3833 H 2 73.269 76.873 35.8089 
3809 H 2 75.3347 79.9645 30.6061 
3785 H 2 75.276 76.6469 30.4815 
3783 O 3 76.1032 76.1656 30.4674 
3778 H 2 76.4179 79.4987 34.9766 
3784 H 2 76.145 75.7859 29.5897 
3787 H 2 75.5429 79.3064 27.6014 
3771 O 3 76.1821 76.1691 27.5124 
3772 H 2 76.3095 77.1122 27.4096 
3791 H 2 77.3361 76.2672 33.6105 
3790 H 2 76.578 76.1508 32.3053 
3789 O 3 76.5114 76.5105 33.1898 
3758 H 2 75.475 79.6299 33.1891 
3786 O 3 76.4839 79.1368 27.6464 
3756 O 3 76.3854 79.3435 33.1163 
3739 H 2 77.0017 78.8414 31.3712 
3788 H 2 76.7497 79.483 28.4983 
3738 O 3 76.9753 78.8542 30.4145 
3757 H 2 76.3508 78.3967 33.2532 
3740 H 2 77.0167 77.9321 30.1609 
61 C 1 80.127 79.023 27.223 
62 C 1 79.831 79.989 28.232 
63 C 1 80.224 78.294 29.985 
64 C 1 80.144 78.932 32.375 
91 C 1 79.143 81.181 27.861 
93 C 1 79.959 79.644 29.613 
94 C 1 79.548 80.567 30.622 
95 C 1 79.718 80.241 32.003 
96 C 1 79.198 81.107 33.012 
97 C 1 80.199 78.569 33.756 
98 C 1 79.988 79.557 34.765 
138 C 1 79.407 80.804 34.393 
646 C 1 80.225 77.65 27.595 
647 C 1 79.37 75.059 28.339 
648 C 1 79.84 75.954 29.348 
649 C 1 79.689 75.618 30.729 
650 C 1 80.047 76.563 31.738 
654 C 1 79.648 75.536 35.88 
676 C 1 80.191 77.284 28.976 
677 C 1 80.234 77.926 31.366 
678 C 1 79.938 76.212 33.118 
679 C 1 80.179 77.193 34.127 
680 C 1 80.113 76.831 35.508 
3777 O 3 76.251 79.5962 35.9141 
3779 H 2 75.3701 79.9673 35.9636 
3799 H 2 75.504 76.0528 35.7503 
181 C 1 74.646 83.251 27.754 
183 C 1 74.007 83.177 30.144 
235 C 1 73.294 82.999 27.383 
236 C 1 72.367 82.596 28.392 
237 C 1 72.695 82.763 29.773 
238 C 1 71.824 82.25 30.782 
239 C 1 74.371 83.229 31.525 
240 C 1 73.381 83.026 32.534 
241 C 1 73.737 83.122 33.915 
242 C 1 72.779 82.801 34.924 
292 C 1 71.26 81.778 28.02 
294 C 1 70.824 81.305 30.41 
296 C 1 72.129 82.456 32.162 
297 C 1 71.327 81.842 33.171 
298 C 1 71.605 82.083 34.552 
299 C 1 70.883 81.376 35.561 
184 C 1 76.726 82.947 30.888 
139 C 1 78.785 81.601 35.402 
185 C 1 75.747 83.197 31.897 
187 C 1 75.106 83.256 34.287 
186 C 1 76.108 83.128 33.278 
134 C 1 78.722 81.667 30.251 
243 C 1 75.473 83.232 35.668 
135 C 1 77.949 82.318 31.26 
182 C 1 75.014 83.259 29.135 
189 C 1 76.812 82.915 36.039 
136 C 1 78.244 82.099 32.64 
133 C 1 76.375 83.06 29.507 
188 C 1 77.718 82.469 35.03 
92 C 1 78.455 81.921 28.87 
137 C 1 77.399 82.651 33.649 
131 C 1 76.983 82.847 27.117 
132 C 1 77.317 82.693 28.498 
469 C 1 70.726 74.738 37.473 
524 C 1 71.697 73.763 37.102 
525 C 1 72.552 73.225 38.111 
527 C 1 71.148 74.252 39.863 
528 C 1 70.9 74.524 41.244 
529 C 1 71.625 73.82 42.253 
576 C 1 74.214 72.709 36.358 
577 C 1 73.851 72.772 37.739 
578 C 1 74.855 72.66 38.748 
579 C 1 72.23 73.402 39.491 
580 C 1 73.144 72.971 40.5 
581 C 1 72.802 73.108 41.881 
582 C 1 73.761 72.791 42.89 
583 C 1 71.346 74.06 43.634 
584 C 1 72.151 73.45 44.643 
624 C 1 74.488 72.679 40.129 
628 C 1 73.406 72.885 44.271 
621 C 1 76.576 72.92 36.995 
622 C 1 76.222 72.818 38.376 
623 C 1 77.174 73.156 39.385 
625 C 1 75.498 72.69 41.138 
626 C 1 75.131 72.663 42.519 
627 C 1 76.133 72.797 43.528 
655 C 1 77.818 73.512 36.624 
656 C 1 78.609 74.14 37.633 
657 C 1 78.335 73.895 39.013 
658 C 1 79.045 74.614 40.022 
659 C 1 76.836 73.012 40.766 
660 C 1 77.74 73.463 41.775 
661 C 1 77.421 73.279 43.156 
662 C 1 78.264 73.836 44.165 
663 C 1 75.772 72.726 44.908 
686 C 1 78.803 74.337 41.403 
688 C 1 79.213 74.832 43.793 
3781 H 2 74.7981 75.3917 37.6693 
355 C 1 69.799 79.267 36.199 
357 C 1 70.499 80.86 37.951 
358 C 1 70.711 81.16 39.332 
359 C 1 70.18 80.301 40.341 
363 C 1 70.767 81.233 44.484 
412 C 1 69.743 76.896 36.836 
413 C 1 69.902 79.62 37.579 
414 C 1 69.678 78.635 38.589 
415 C 1 69.738 78.998 39.969 
416 C 1 69.635 77.993 40.978 
417 C 1 70.354 80.625 41.722 
418 C 1 69.931 79.707 42.731 
419 C 1 70.065 80.05 44.112 
468 C 1 70.191 75.595 36.464 
470 C 1 69.681 77.259 38.217 
471 C 1 69.91 76.275 39.226 
472 C 1 69.805 76.627 40.607 
473 C 1 70.151 75.678 41.616 
474 C 1 69.65 78.36 42.359 
475 C 1 69.67 77.35 43.368 
476 C 1 69.641 77.717 44.749 
526 C 1 70.513 75.038 38.854 
530 C 1 70.004 76.015 42.997 
531 C 1 70.463 75.115 44.006 
3797 H 2 72.0796 77.3057 41.1799 
3795 O 3 72.6783 77.2979 41.9267 
3818 H 2 72.582 77.3162 37.8134 
3841 H 2 72.4647 76.9017 43.8778 
3816 O 3 72.7319 77.3473 38.7582 
3796 H 2 73.3911 76.7188 41.6569 
3817 H 2 73.251 76.565 38.9447 
3842 H 2 73.7297 76.4311 44.5636 
3780 O 3 74.9239 75.5926 38.5967 
3815 H 2 74.8933 75.4059 40.466 
3813 O 3 74.8827 75.6597 41.3888 
3802 H 2 73.2503 79.0671 38.9533 
3811 H 2 73.3129 78.9639 42.0575 
3840 O 3 72.8671 76.8062 44.741 
3810 O 3 73.5267 79.8839 41.9023 
3812 H 2 73.3536 80.3151 42.7391 
3801 O 3 73.6868 79.9103 39.0751 
3803 H 2 73.6056 80.0895 40.0118 
3826 H 2 73.4792 80.4147 37.0553 
3850 H 2 73.4401 78.7429 44.8331 
3827 H 2 73.1693 79.2616 36.1245 
3849 O 3 73.5902 79.6811 44.9488 
3825 O 3 73.6282 80.1008 36.1634 
3830 H 2 75.376 75.4123 43.273 
3828 O 3 75.2621 75.7291 44.1691 
3782 H 2 75.6947 76.1597 38.617 
3814 H 2 75.691 76.1577 41.5101 
3838 H 2 77.1606 77.4691 42.8991 
3837 O 3 77.0431 77.4198 41.9504 
3820 H 2 77.3416 77.1354 40.0842 
3819 O 3 77.0196 77.1879 39.1843 
3823 H 2 75.4939 79.9391 38.7433 
3848 H 2 75.2395 80.1108 41.4229 
3822 O 3 76.449 79.8754 38.7439 
3824 H 2 76.6888 79.8565 37.8174 
3871 H 2 76.269 80.0407 43.2421 
3847 H 2 76.4891 80.1584 40.5695 
3846 O 3 76.1758 79.9126 41.44 
3839 H 2 76.8401 78.3173 41.6868 
3821 H 2 76.8206 78.1151 39.0544 
99 C 1 80.087 79.202 36.146 
100 C 1 79.757 80.157 37.155 
101 C 1 80.209 78.477 38.907 
102 C 1 80.232 78.11 40.288 
103 C 1 80.107 79.113 41.297 
142 C 1 79.898 79.818 38.535 
143 C 1 79.455 80.726 39.544 
144 C 1 79.636 80.405 40.925 
146 C 1 80.175 78.751 42.678 
147 C 1 79.929 79.731 43.687 
196 C 1 79.305 80.957 43.315 
681 C 1 80.233 77.834 36.517 
682 C 1 79.468 75.215 37.261 
683 C 1 79.907 76.125 38.27 
684 C 1 79.768 75.785 39.651 
685 C 1 80.093 76.741 40.66 
687 C 1 79.42 75.137 42.412 
689 C 1 79.729 75.701 44.802 
702 C 1 80.211 77.467 37.898 
703 C 1 79.996 76.386 42.041 
704 C 1 80.202 77.375 43.05 
705 C 1 80.149 77.011 44.43 
3870 O 3 76.1552 80.0178 44.1922 
3872 H 2 75.2082 79.9611 44.3192 
3754 H 2 77.493 76.55 36.9963 
3753 O 3 77.0117 76.7692 36.1985 
3829 H 2 75.8894 76.4473 44.2512 
3856 H 2 76.9189 78.5146 44.5597 
3855 O 3 77.1484 77.5948 44.6921 
3755 H 2 76.757 77.6844 36.3156 
244 C 1 74.463 83.238 36.677 
245 C 1 74.83 83.258 38.057 
246 C 1 73.826 83.142 39.067 
250 C 1 74.922 83.259 43.209 
300 C 1 73.12 82.939 36.305 
301 C 1 72.208 82.504 37.314 
302 C 1 72.53 82.682 38.695 
303 C 1 71.677 82.14 39.704 
304 C 1 74.189 83.206 40.447 
305 C 1 73.206 82.969 41.456 
306 C 1 73.558 83.077 42.837 
307 C 1 72.612 82.723 43.846 
356 C 1 71.13 81.649 36.942 
360 C 1 71.975 82.356 41.085 
361 C 1 71.194 81.714 42.094 
362 C 1 71.464 81.965 43.475 
140 C 1 79.029 81.325 36.783 
141 C 1 78.316 82.04 37.792 
145 C 1 79.087 81.253 41.934 
190 C 1 77.151 82.773 37.42 
191 C 1 76.197 83.106 38.429 
192 C 1 78.591 81.796 39.173 
193 C 1 77.796 82.42 40.182 
194 C 1 78.099 82.211 41.563 
195 C 1 77.235 82.734 42.572 
197 C 1 78.657 81.732 44.324 
247 C 1 76.552 83.006 39.81 
248 C 1 75.564 83.222 40.819 
249 C 1 75.928 83.165 42.2 
251 C 1 77.56 82.563 43.952 
252 C 1 76.639 82.978 44.962 
308 C 1 75.29 83.247 44.59 
533 C 1 70.841 74.594 46.395 
585 C 1 71.845 73.654 46.024 
586 C 1 72.718 73.146 47.033 
587 C 1 70.617 74.886 47.776 
588 C 1 71.279 74.123 48.785 
589 C 1 71.021 74.386 50.166 
590 C 1 71.771 73.708 51.175 
592 C 1 70.564 74.962 52.928 
629 C 1 74.396 72.687 45.28 
630 C 1 74.032 72.737 46.661 
632 C 1 72.389 73.311 48.414 
633 C 1 73.318 72.912 49.423 
634 C 1 72.972 73.037 50.803 
635 C 1 73.941 72.754 51.813 
636 C 1 71.483 73.938 52.556 
637 C 1 72.309 73.356 53.565 
667 C 1 74.672 72.666 49.051 
671 C 1 73.583 72.835 53.193 
631 C 1 75.039 72.661 47.67 
664 C 1 76.75 72.98 45.918 
665 C 1 76.4 72.866 47.298 
666 C 1 77.34 73.237 48.307 
668 C 1 75.681 72.712 50.06 
669 C 1 75.315 72.673 51.441 
670 C 1 76.311 72.842 52.45 
690 C 1 77.97 73.615 45.546 
691 C 1 78.739 74.27 46.555 
692 C 1 78.474 74.015 47.936 
693 C 1 79.159 74.759 48.945 
694 C 1 77.006 73.081 49.688 
695 C 1 77.894 73.563 50.697 
696 C 1 77.582 73.368 52.078 
697 C 1 78.405 73.954 53.087 
698 C 1 75.953 72.758 53.831 
710 C 1 78.926 74.473 50.325 
712 C 1 79.319 74.983 52.715 
3861 O 3 73.1934 79.4349 53.4785 
3863 H 2 72.8727 78.539 53.3747 
3888 O 3 72.8167 76.7604 53.1117 
420 C 1 69.756 79.088 45.121 
422 C 1 70.401 80.704 46.873 
423 C 1 70.602 81.012 48.254 
424 C 1 70.102 80.134 49.263 
428 C 1 70.656 81.087 53.406 
477 C 1 69.783 76.717 45.758 
478 C 1 69.847 79.444 46.502 
479 C 1 69.658 78.452 47.511 
480 C 1 69.705 78.817 48.892 
481 C 1 69.637 77.809 49.901 
482 C 1 70.264 80.464 50.644 
483 C 1 69.874 79.532 51.653 
484 C 1 69.995 79.88 53.034 
485 C 1 69.72 78.907 54.043 
532 C 1 70.276 75.432 45.386 
534 C 1 69.709 77.077 47.139 
535 C 1 69.971 76.101 48.148 
536 C 1 69.854 76.45 49.529 
537 C 1 70.233 75.513 50.538 
538 C 1 69.639 78.177 51.281 
539 C 1 69.694 77.168 52.291 
540 C 1 69.652 77.533 53.671 
591 C 1 70.075 75.845 51.919 
3882 O 3 72.6969 76.9264 50.3034 
3883 H 2 72.2413 76.8338 49.4666 
3890 H 2 72.212 76.4167 52.4542 
3858 O 3 73.0049 76.5751 47.4599 
3860 H 2 72.8536 76.6091 46.5153 
3884 H 2 73.502 76.4201 50.1955 
3889 H 2 73.6552 76.347 52.9059 
3859 H 2 73.8006 76.052 47.5568 
3868 H 2 73.0558 78.2832 47.6735 
3881 H 2 73.2816 78.7307 50.9221 
3879 O 3 73.3098 79.6729 50.7555 
3869 H 2 73.1289 79.3283 48.7663 
3867 O 3 73.1045 79.2287 47.8146 
3880 H 2 72.8937 80.0649 51.5232 
3851 H 2 73.2341 79.8761 45.8156 
3892 H 2 74.9688 79.639 52.9931 
3877 H 2 74.9701 80.2461 50.109 
3845 H 2 74.9316 79.7598 47.2385 
3898 H 2 75.4142 75.3729 51.7314 
3873 O 3 75.5918 75.6917 46.9564 
3864 O 3 75.2351 75.6598 49.7405 
3897 O 3 75.3085 75.6552 52.6399 
3865 H 2 75.4201 75.4232 48.8316 
3875 H 2 75.5607 75.5137 46.0164 
3903 O 3 77.346 77.6033 53.1402 
3899 H 2 76.0001 76.3036 52.7717 
3905 H 2 76.706 78.3081 53.0407 
3866 H 2 75.9479 76.2502 49.9846 
3874 H 2 76.289 76.3401 47.0549 
3853 H 2 77.9065 77.8932 50.8999 
3857 H 2 77.6739 77.5913 45.4922 
3834 O 3 77.4142 77.7493 47.3989 
3835 H 2 77.728 77.6623 48.299 
3852 O 3 77.2561 77.6638 50.236 
3893 H 2 75.8607 80.0556 51.8429 
3891 O 3 75.8782 79.8446 52.7764 
3878 H 2 76.1426 80.463 49.1762 
3876 O 3 75.9147 80.1095 50.036 
3843 O 3 75.8582 79.9197 47.0598 
3844 H 2 75.8806 80.2061 46.1467 
3836 H 2 76.7062 78.3912 47.4526 
3854 H 2 76.6953 78.4369 50.1723 
104 C 1 80.234 78.018 45.44 
148 C 1 80.04 79.38 45.068 
149 C 1 79.678 80.323 46.077 
150 C 1 80.188 78.66 47.829 
151 C 1 80.224 78.294 49.21 
152 C 1 80.064 79.292 50.219 
200 C 1 79.831 79.989 47.458 
201 C 1 79.356 80.881 48.467 
202 C 1 79.548 80.567 49.848 
204 C 1 80.144 78.932 51.6 
205 C 1 79.865 79.903 52.609 
206 C 1 79.988 79.557 53.99 
259 C 1 79.198 81.107 52.237 
706 C 1 79.561 75.374 46.183 
707 C 1 79.968 76.299 47.192 
708 C 1 79.84 75.954 48.573 
709 C 1 80.132 76.921 49.582 
711 C 1 79.515 75.294 51.335 
713 C 1 79.805 75.869 53.724 
717 C 1 80.225 77.65 46.82 
718 C 1 80.047 76.563 50.963 
719 C 1 80.219 77.559 51.972 
720 C 1 80.179 77.193 53.353 
309 C 1 74.28 83.218 45.599 
310 C 1 74.646 83.251 46.98 
311 C 1 73.647 83.1 47.989 
315 C 1 74.738 83.255 52.131 
364 C 1 72.948 82.873 45.227 
365 C 1 72.052 82.406 46.236 
366 C 1 72.367 82.596 47.617 
367 C 1 71.534 82.024 48.626 
368 C 1 74.007 83.177 49.37 
369 C 1 73.034 82.906 50.379 
370 C 1 73.381 83.026 51.759 
371 C 1 72.448 82.64 52.768 
421 C 1 71.004 81.514 45.864 
425 C 1 71.824 82.25 50.007 
426 C 1 71.066 81.582 51.016 
427 C 1 71.327 81.842 52.397 
203 C 1 78.97 81.395 50.857 
317 C 1 76.464 83.034 53.884 
256 C 1 77.64 82.517 49.104 
312 C 1 76.375 83.06 48.732 
257 C 1 77.949 82.318 50.485 
372 C 1 75.106 83.256 53.512 
260 C 1 78.524 81.859 53.246 
199 C 1 78.172 82.155 46.714 
314 C 1 75.747 83.197 51.122 
254 C 1 76.018 83.147 47.351 
258 C 1 77.067 82.811 51.494 
316 C 1 77.399 82.651 52.875 
313 C 1 75.381 83.24 49.741 
253 C 1 76.983 82.847 46.342 
198 C 1 78.91 81.465 45.705 
255 C 1 78.455 81.921 48.095 
594 C 1 70.96 74.454 55.318 
638 C 1 71.996 73.549 54.946 
639 C 1 72.886 73.071 55.955 
640 C 1 70.726 74.738 56.699 
672 C 1 74.58 72.672 54.202 
673 C 1 74.214 72.709 55.583 
675 C 1 72.552 73.225 57.336 
989 C 1 71.414 73.998 57.708 
990 C 1 71.148 74.252 59.088 
991 C 1 71.92 73.601 60.097 
993 C 1 70.671 74.812 61.85 
1045 C 1 73.494 72.859 58.345 
1046 C 1 73.144 72.971 59.726 
1047 C 1 74.123 72.722 60.735 
1048 C 1 71.625 73.82 61.478 
1049 C 1 72.471 73.267 62.487 
1101 C 1 74.855 72.66 57.973 