ITEM: TIMESTEP
3000000
ITEM: NUMBER OF ATOMS
5084
ITEM: BOX BOUNDS pp pp pp
0.0000000000000000e+00 1.5000000000000000e+02
0.0000000000000000e+00 1.5000000000000000e+02
0.0000000000000000e+00 2.8837799999999999e+02
ITEM: ATOMS id element type x y z 
265 C 1 71.414 73.998 0.032 
266 C 1 71.148 74.252 1.413 
267 C 1 71.92 73.601 2.422 
269 C 1 70.671 74.812 4.174 
271 C 1 71.084 74.318 6.564 
321 C 1 73.494 72.859 0.669 
322 C 1 73.144 72.971 2.05 
323 C 1 74.123 72.722 3.059 
324 C 1 71.625 73.82 3.803 
325 C 1 72.471 73.267 4.812 
326 C 1 72.151 73.45 6.192 
327 C 1 73.057 73.003 7.202 
328 C 1 70.841 74.594 7.945 
329 C 1 71.554 73.878 8.954 
377 C 1 74.855 72.66 0.297 
381 C 1 73.761 72.791 4.44 
382 C 1 74.763 72.662 5.449 
383 C 1 74.396 72.687 6.83 
385 C 1 72.718 73.146 8.582 
378 C 1 75.862 72.742 1.306 
379 C 1 75.498 72.69 2.687 
380 C 1 76.488 72.892 3.696 
384 C 1 75.407 72.681 7.839 
433 C 1 79.267 74.907 0.191 
434 C 1 77.174 73.156 0.935 
435 C 1 78.045 73.669 1.944 
436 C 1 77.74 73.463 3.325 
437 C 1 78.542 74.077 4.334 
438 C 1 76.133 72.797 5.077 
439 C 1 77.091 73.118 6.086 
440 C 1 76.75 72.98 7.467 
441 C 1 77.662 73.415 8.476 
490 C 1 79.045 74.614 1.572 
494 C 1 78.264 73.836 5.714 
495 C 1 78.986 74.543 6.724 
496 C 1 78.739 74.27 8.104 
105 C 1 70.029 79.965 0.51 
109 C 1 70.55 80.936 4.652 
154 C 1 69.678 78.635 0.138 
155 C 1 69.646 77.625 1.147 
156 C 1 70.18 80.301 1.891 
157 C 1 69.822 79.356 2.9 
158 C 1 69.931 79.707 4.281 
159 C 1 69.691 78.726 5.29 
160 C 1 70.767 81.233 6.033 
161 C 1 70.221 80.383 7.042 
162 C 1 70.401 80.704 8.423 
209 C 1 69.91 76.275 0.775 
210 C 1 70.321 75.352 1.784 
211 C 1 69.635 77.993 2.528 
212 C 1 69.725 76.986 3.537 
213 C 1 69.67 77.35 4.918 
214 C 1 69.881 76.362 5.927 
215 C 1 69.756 79.088 6.67 
216 C 1 69.636 78.085 7.679 
268 C 1 70.151 75.678 3.165 
270 C 1 70.463 75.115 5.555 
272 C 1 69.783 76.717 7.308 
273 C 1 70.112 75.761 8.317 
3664 H 2 73.1323 77.0617 7.84881 
3646 H 2 72.7841 78.1344 4.87522 
3645 O 3 72.7663 79.0709 4.67843 
3647 H 2 72.5355 79.1169 3.75062 
3661 H 2 72.5049 79.0587 6.57936 
3660 O 3 72.7166 78.8091 7.47888 
3630 O 3 72.816 78.9818 1.73136 
3632 H 2 72.5856 79.0826 0.807789 
3662 H 2 71.9615 79.097 7.99184 
3631 H 2 73.502 79.6326 1.87999 
3643 H 2 74.4394 79.6701 4.77958 
3667 H 2 74.3389 79.5922 7.73294 
3650 H 2 73.2925 75.7992 5.60117 
3621 O 3 73.4443 76.314 2.1759 
3648 O 3 73.5022 76.4609 4.94212 
3622 H 2 73.5331 76.1325 3.11154 
3663 O 3 73.4043 76.2262 8.22855 
3623 H 2 73.2912 77.2576 2.12792 
3649 H 2 74.4473 76.5888 5.02263 
3652 H 2 74.9554 75.9003 7.91532 
5060 H 2 73.4245 76.5505 0.440152 
3625 H 2 75.111 75.9014 1.94647 
3668 H 2 75.0408 80.5188 6.76321 
3666 O 3 75.1474 80.0901 7.61238 
5076 O 3 75.1164 80.2244 1.90176 
5077 H 2 75.0983 80.6294 1.03463 
3642 O 3 75.3073 80.0676 4.7083 
3644 H 2 75.3445 80.4036 3.81276 
3655 H 2 76.5182 78.7748 7.58418 
3641 H 2 76.6773 79.0667 4.89685 
5078 H 2 75.7079 79.478 1.80572 
3651 O 3 75.8993 75.808 7.78536 
3638 H 2 76.1399 75.805 5.77412 
3636 O 3 76.2012 75.9672 4.83277 
3624 O 3 76.0631 75.8543 2.03327 
3626 H 2 76.2174 75.8371 2.97779 
3653 H 2 76.2494 76.6858 7.93739 
3637 H 2 76.6646 76.8018 4.76275 
3629 H 2 76.5661 77.6008 1.85831 
3639 O 3 77.3182 78.3563 4.9242 
3654 O 3 77.1717 78.0859 7.70565 
3627 O 3 77.0557 78.3952 2.07177 
3628 H 2 77.1677 78.36 3.02174 
3640 H 2 77.6149 78.3357 5.834 
1 C 1 80.209 78.477 0.457 
2 C 1 80.015 79.469 1.466 
3 C 1 80.217 78.386 5.608 
4 C 1 79.455 80.726 1.094 
6 C 1 80.107 79.113 2.847 
7 C 1 79.795 80.073 3.856 
8 C 1 79.929 79.731 5.236 
9 C 1 79.503 80.647 6.246 
10 C 1 80.234 78.018 6.989 
11 C 1 80.127 79.023 7.998 
22 C 1 79.678 80.323 7.626 
23 C 1 79.143 81.181 8.635 
489 C 1 80.165 77.102 0.828 
491 C 1 79.605 75.455 2.581 
492 C 1 79.42 75.137 3.962 
493 C 1 79.874 76.039 4.971 
544 C 1 80.093 76.741 2.209 
545 C 1 80.23 77.742 3.218 
546 C 1 80.202 77.375 4.599 
547 C 1 79.729 75.701 6.352 
548 C 1 80.071 76.652 7.361 
549 C 1 79.968 76.299 8.742 
3656 H 2 77.6844 78.3721 8.46155 
5068 H 2 77.4736 78.4769 0.269381 
38 C 1 74.554 83.245 3.378 
65 C 1 73.826 83.142 0.616 
66 C 1 72.863 82.837 1.625 
67 C 1 73.206 82.969 3.006 
68 C 1 72.287 82.55 4.015 
69 C 1 74.922 83.259 4.759 
70 C 1 73.916 83.16 5.768 
71 C 1 74.28 83.218 7.148 
72 C 1 73.294 82.999 8.157 
106 C 1 71.677 82.14 1.253 
107 C 1 70.943 81.446 2.262 
108 C 1 71.194 81.714 3.643 
110 C 1 72.612 82.723 5.396 
111 C 1 71.75 82.196 6.405 
112 C 1 72.052 82.406 7.786 
113 C 1 71.26 81.778 8.795 
5 C 1 78.848 81.533 2.103 
15 C 1 77.48 82.608 0.351 
16 C 1 77.796 82.42 1.731 
17 C 1 76.898 82.882 2.74 
18 C 1 79.087 81.253 3.484 
19 C 1 78.386 81.981 4.493 
20 C 1 78.657 81.732 5.874 
21 C 1 77.873 82.37 6.883 
36 C 1 75.198 83.253 0.988 
37 C 1 75.564 83.222 2.369 
39 C 1 77.235 82.734 4.121 
40 C 1 76.287 83.084 5.13 
41 C 1 76.639 82.978 6.511 
42 C 1 75.656 83.21 7.52 
43 C 1 78.172 82.155 8.264 
73 C 1 76.018 83.147 8.901 
330 C 1 71.279 74.123 10.335 
331 C 1 72.073 73.499 11.344 
333 C 1 70.783 74.666 13.097 
334 C 1 70.564 74.962 14.477 
335 C 1 71.213 74.187 15.486 
386 C 1 73.672 72.812 9.591 
387 C 1 73.318 72.912 10.972 
388 C 1 74.305 72.697 11.981 
389 C 1 71.771 73.708 12.725 
390 C 1 72.635 73.185 13.734 
391 C 1 72.309 73.356 15.115 
392 C 1 73.231 72.941 16.124 
393 C 1 70.96 74.454 16.867 
394 C 1 71.697 73.763 17.876 
446 C 1 73.941 72.754 13.362 
447 C 1 74.947 72.66 14.371 
448 C 1 74.58 72.672 15.752 
450 C 1 72.886 73.071 17.505 
442 C 1 75.039 72.661 9.22 
443 C 1 76.043 72.777 10.229 
444 C 1 75.681 72.712 11.609 
445 C 1 76.663 72.949 12.619 
449 C 1 75.59 72.7 16.761 
498 C 1 77.34 73.237 9.857 
499 C 1 78.192 73.779 10.866 
500 C 1 77.894 73.563 12.247 
501 C 1 78.675 74.205 13.256 
502 C 1 76.311 72.842 13.999 
503 C 1 77.257 73.196 15.008 
504 C 1 76.921 73.046 16.389 
505 C 1 77.818 73.512 17.398 
551 C 1 79.159 74.759 10.494 
555 C 1 78.405 73.954 14.637 
556 C 1 79.102 74.686 15.646 
557 C 1 78.865 74.404 17.027 
3670 H 2 75.9967 74.9113 10.9173 
3665 H 2 73.1989 76.3077 9.15991 
3707 H 2 72.8306 80.1802 17.1075 
163 C 1 69.963 79.794 9.432 
167 C 1 70.449 80.782 13.575 
217 C 1 69.658 78.452 9.06 
218 C 1 69.66 77.442 10.069 
219 C 1 70.102 80.134 10.813 
220 C 1 69.777 79.177 11.822 
221 C 1 69.874 79.532 13.203 
222 C 1 69.667 78.543 14.212 
223 C 1 70.656 81.087 14.955 
224 C 1 70.14 80.218 15.964 
225 C 1 70.308 80.545 17.345 
274 C 1 69.971 76.101 9.698 
275 C 1 70.414 75.193 10.707 
276 C 1 69.637 77.809 11.45 
277 C 1 69.762 76.806 12.459 
278 C 1 69.694 77.168 13.84 
279 C 1 69.94 76.188 14.849 
280 C 1 69.72 78.907 15.593 
281 C 1 69.635 77.901 16.602 
282 C 1 69.644 78.268 17.983 
332 C 1 70.233 75.513 12.087 
336 C 1 69.829 76.538 16.23 
337 C 1 70.191 75.595 17.239 
3681 O 3 73.1962 76.347 11.173 
3682 H 2 72.9674 76.164 12.0843 
3696 O 3 72.7806 77.2861 14.147 
3698 H 2 72.5082 77.274 15.0645 
3708 O 3 72.9361 77.0265 17.0796 
3709 H 2 72.9531 77.9835 17.0945 
3697 H 2 72.7889 78.2138 13.9114 
3680 H 2 72.8528 78.1402 11.0534 
3678 O 3 72.8949 79.0536 10.7705 
3693 O 3 73.3884 79.8175 13.511 
3695 H 2 73.1374 79.8438 14.4343 
3679 H 2 72.8467 79.5587 11.5821 
3705 O 3 73.1138 79.7356 16.3085 
3694 H 2 74.3373 79.9437 13.5166 
3706 H 2 74.0559 79.8988 16.2641 
3659 H 2 74.448 79.7997 10.5383 
3683 H 2 74.1307 76.148 11.1156 
3700 H 2 74.3598 76.0457 16.7946 
3685 H 2 74.4099 76.373 14.0368 
3710 H 2 72.751 76.7757 17.9846 
3701 H 2 75.4618 75.31 17.5268 
3684 O 3 75.1422 75.8224 13.7595 
3686 H 2 75.3754 75.3217 14.5413 
3699 O 3 75.1969 75.6031 16.6549 
3658 H 2 75.3647 80.3493 9.46611 
3657 O 3 75.3218 80.1669 10.4048 
3675 O 3 76.178 79.8616 13.0444 
3676 H 2 76.0137 80.2956 12.2071 
3691 H 2 76.0188 80.5583 15.245 
3690 O 3 75.6803 80.1102 16.0201 
3671 H 2 75.9159 75.5959 9.56944 
3677 H 2 76.6067 79.039 12.8083 
3692 H 2 75.9435 79.1973 15.9037 
3669 O 3 75.9471 75.7757 10.5091 
3689 H 2 76.4403 76.7897 13.2963 
3704 H 2 76.1127 76.8863 16.0293 
3673 H 2 76.7981 77.3966 10.4158 
3703 H 2 77.0487 77.5309 15.0291 
3702 O 3 76.6584 77.6609 15.8934 
3687 O 3 77.2001 77.3702 13.3423 
3672 O 3 77.2255 78.2426 10.5498 
3688 H 2 77.5932 77.3204 12.471 
3674 H 2 76.5193 78.8837 10.4685 
12 C 1 80.188 78.66 9.379 
13 C 1 79.959 79.644 10.388 
14 C 1 80.199 78.569 14.53 
24 C 1 79.356 80.881 10.016 
26 C 1 80.064 79.292 11.769 
27 C 1 79.718 80.241 12.778 
28 C 1 79.865 79.903 14.159 
29 C 1 79.407 80.804 15.168 
30 C 1 80.229 78.202 15.911 
31 C 1 80.087 79.202 16.92 
51 C 1 79.593 80.487 16.549 
497 C 1 79.37 75.059 9.113 
550 C 1 80.191 77.284 9.751 
552 C 1 79.689 75.618 11.503 
553 C 1 79.515 75.294 12.884 
554 C 1 79.938 76.212 13.893 
597 C 1 80.132 76.921 11.132 
598 C 1 80.234 77.926 12.141 
599 C 1 80.219 77.559 13.521 
600 C 1 79.805 75.869 15.274 
601 C 1 80.113 76.831 16.283 
602 C 1 80.022 76.475 17.664 
3715 H 2 75.7551 79.9939 17.9155 
3734 H 2 77.2996 77.4118 17.8031 
76 C 1 74.371 83.229 12.3 
114 C 1 73.647 83.1 9.538 
115 C 1 72.695 82.763 10.547 
116 C 1 73.034 82.906 11.928 
117 C 1 72.129 82.456 12.937 
118 C 1 74.738 83.255 13.681 
119 C 1 73.737 83.122 14.69 
120 C 1 74.098 83.193 16.071 
121 C 1 73.12 82.939 17.08 
164 C 1 71.534 82.024 10.176 
165 C 1 70.824 81.305 11.185 
166 C 1 71.066 81.582 12.565 
168 C 1 72.448 82.64 14.318 
169 C 1 71.605 82.083 15.327 
170 C 1 71.899 82.304 16.708 
171 C 1 71.13 81.649 17.717 
79 C 1 76.464 83.034 15.433 
122 C 1 75.837 83.182 17.823 
44 C 1 77.317 82.693 9.273 
25 C 1 78.722 81.667 11.025 
75 C 1 75.381 83.24 11.291 
50 C 1 77.718 82.469 15.805 
47 C 1 78.97 81.395 12.406 
78 C 1 76.108 83.128 14.052 
48 C 1 78.244 82.099 13.415 
80 C 1 75.473 83.232 16.442 
46 C 1 76.726 82.947 11.663 
49 C 1 78.524 81.859 14.796 
81 C 1 78.025 82.265 17.186 
77 C 1 77.067 82.811 13.043 
45 C 1 77.64 82.517 10.654 
52 C 1 79.029 81.325 17.558 
74 C 1 75.014 83.259 9.91 
395 C 1 71.414 73.998 19.257 
396 C 1 72.23 73.402 20.266 
398 C 1 70.9 74.524 22.019 
399 C 1 70.671 74.812 23.4 
400 C 1 71.346 74.06 24.409 
451 C 1 73.851 72.772 18.514 
452 C 1 73.494 72.859 19.894 
453 C 1 74.488 72.679 20.903 
454 C 1 71.92 73.601 21.647 
455 C 1 72.802 73.108 22.656 
456 C 1 72.471 73.267 24.037 
457 C 1 73.406 72.885 25.046 
458 C 1 71.084 74.318 25.789 
459 C 1 71.845 73.654 26.798 
510 C 1 74.123 72.722 22.284 
512 C 1 74.763 72.662 24.674 
514 C 1 73.057 73.003 26.427 
506 C 1 75.223 72.668 18.142 
507 C 1 76.222 72.818 19.151 
508 C 1 75.862 72.742 20.532 
509 C 1 76.836 73.012 21.541 
511 C 1 75.131 72.663 23.293 
513 C 1 75.772 72.726 25.683 
559 C 1 77.502 73.323 18.779 
560 C 1 78.335 73.895 19.788 
561 C 1 78.045 73.669 21.169 
562 C 1 78.803 74.337 22.178 
563 C 1 76.488 72.892 22.922 
564 C 1 77.421 73.279 23.931 
565 C 1 77.091 73.118 25.311 
566 C 1 77.97 73.615 26.321 
604 C 1 79.267 74.907 19.416 
608 C 1 78.542 74.077 23.559 
609 C 1 79.213 74.832 24.568 
610 C 1 78.986 74.543 25.949 
226 C 1 69.902 79.62 18.354 
228 C 1 70.711 81.16 20.107 
230 C 1 70.354 80.625 22.497 
283 C 1 69.681 77.259 18.992 
284 C 1 70.029 79.965 19.735 
285 C 1 69.738 78.998 20.744 
286 C 1 69.822 79.356 22.125 
287 C 1 69.65 78.36 23.134 
288 C 1 70.55 80.936 23.878 
289 C 1 70.065 80.05 24.887 
290 C 1 70.221 80.383 26.267 
338 C 1 70.039 75.93 18.62 
339 C 1 70.513 75.038 19.629 
340 C 1 69.646 77.625 20.372 
341 C 1 69.805 76.627 21.381 
342 C 1 69.725 76.986 22.762 
343 C 1 70.004 76.015 23.771 
344 C 1 69.691 78.726 24.515 
345 C 1 69.641 77.717 25.524 
346 C 1 69.636 78.085 26.905 
397 C 1 70.321 75.352 21.01 
401 C 1 69.881 76.362 25.152 
402 C 1 70.276 75.432 26.161 
3747 O 3 73.1983 76.3531 25.2906 
3749 H 2 73.1405 76.2123 26.2356 
3731 H 2 72.7114 76.4576 23.3496 
3729 O 3 73.0958 76.6059 22.4857 
3711 O 3 72.8202 76.816 19.6864 
3712 H 2 72.5352 76.7122 20.5943 
3713 H 2 72.6717 77.7416 19.4926 
3730 H 2 73.3284 77.5344 22.4827 
3742 H 2 73.2294 78.0844 24.9637 
3743 H 2 72.7192 79.2654 25.7618 
3741 O 3 73.0103 79.0129 24.8856 
3724 H 2 72.7928 79.5914 22.9443 
3723 O 3 73.1034 79.3847 22.0628 
3717 O 3 73.3045 79.5233 19.2602 
3718 H 2 73.1702 79.6248 20.2025 
3725 H 2 73.9918 79.7396 22.0319 
3719 H 2 74.2556 79.5228 19.152 
3748 H 2 74.088 76.0839 25.0619 
3745 H 2 74.7351 76.0952 22.042 
3728 H 2 74.5313 76.2393 19.315 
3740 H 2 74.5192 79.7804 24.5423 
3727 H 2 75.461 75.4979 20.252 
3755 H 2 75.6427 80.5555 26.4771 
3738 O 3 75.3309 80.2784 24.4459 
3721 H 2 75.9785 80.1429 20.7796 
3720 O 3 75.7201 79.9353 21.6775 
3739 H 2 75.4639 80.3398 23.4999 
3714 O 3 75.8275 79.8079 18.8516 
3716 H 2 76.3568 79.0117 18.8979 
3744 O 3 75.6269 75.748 22.0645 
3760 H 2 75.8183 75.5804 25.8057 
3759 O 3 75.7499 75.7855 24.8732 
3726 O 3 75.3617 75.7637 19.3378 
3746 H 2 75.6604 75.2243 22.865 
3761 H 2 75.945 76.721 24.8183 
3736 H 2 76.9501 77.0081 21.8281 
3733 H 2 76.7373 76.7226 19.0281 
3751 H 2 77.7157 78.2066 24.3741 
3750 O 3 77.2009 78.3109 25.1743 
3737 H 2 77.805 77.9949 21.0619 
3735 O 3 77.3888 77.8546 21.9124 
3732 O 3 77.2829 77.4615 18.7588 
3752 H 2 76.6651 79.0881 25.0154 
3722 H 2 76.2048 79.1373 21.8883 
32 C 1 80.16 78.842 18.301 
33 C 1 79.898 79.818 19.31 
34 C 1 80.232 78.11 21.063 
35 C 1 80.175 78.751 23.453 
53 C 1 79.252 81.033 18.938 
55 C 1 80.015 79.469 20.691 
56 C 1 79.636 80.405 21.7 
57 C 1 79.795 80.073 23.081 
58 C 1 79.305 80.957 24.09 
59 C 1 80.217 78.386 24.833 
60 C 1 80.04 79.38 25.843 
89 C 1 79.503 80.647 25.471 
558 C 1 79.468 75.215 18.036 
603 C 1 80.211 77.467 18.673 
605 C 1 79.768 75.785 20.425 
606 C 1 79.605 75.455 21.806 
607 C 1 79.996 76.386 22.815 
611 C 1 79.561 75.374 26.958 
641 C 1 80.165 77.102 20.054 
642 C 1 80.23 77.742 22.444 
643 C 1 79.874 76.039 24.196 
644 C 1 80.149 77.011 25.205 
645 C 1 80.071 76.652 26.586 
3766 H 2 77.4412 77.9157 27.0219 
123 C 1 74.83 83.258 18.832 
125 C 1 74.189 83.206 21.222 
172 C 1 73.47 83.053 18.46 
173 C 1 72.53 82.682 19.47 
174 C 1 72.863 82.837 20.85 
175 C 1 71.975 82.356 21.859 
176 C 1 74.554 83.245 22.603 
177 C 1 73.558 83.077 23.612 
178 C 1 73.916 83.16 24.993 
179 C 1 72.948 82.873 26.002 
227 C 1 71.395 81.904 19.098 
229 C 1 70.943 81.446 21.488 
231 C 1 72.287 82.55 23.24 
232 C 1 71.464 81.965 24.249 
233 C 1 71.75 82.196 25.63 
234 C 1 71.004 81.514 26.639 
54 C 1 78.591 81.796 19.948 
82 C 1 77.151 82.773 18.195 
83 C 1 77.48 82.608 19.576 
84 C 1 76.552 83.006 20.585 
85 C 1 78.848 81.533 21.328 
86 C 1 78.099 82.211 22.337 
87 C 1 78.386 81.981 23.718 
88 C 1 77.56 82.563 24.727 
90 C 1 78.91 81.465 26.48 
124 C 1 75.198 83.253 20.213 
126 C 1 76.898 82.882 21.966 
127 C 1 75.928 83.165 22.975 
128 C 1 76.287 83.084 24.356 
129 C 1 75.29 83.247 25.365 
130 C 1 77.873 82.37 26.108 
180 C 1 75.656 83.21 26.745 
404 C 1 70.617 74.886 28.551 
460 C 1 71.554 73.878 28.179 
461 C 1 72.389 73.311 29.188 
463 C 1 71.021 74.386 30.941 
464 C 1 70.783 74.666 32.322 
465 C 1 71.483 73.938 33.331 
515 C 1 74.032 72.737 27.436 
516 C 1 73.672 72.812 28.817 
517 C 1 74.672 72.666 29.826 
518 C 1 72.073 73.499 30.569 
519 C 1 72.972 73.037 31.578 
520 C 1 72.635 73.185 32.959 
521 C 1 73.583 72.835 33.968 
522 C 1 71.213 74.187 34.712 
523 C 1 71.996 73.549 35.721 
571 C 1 74.305 72.697 31.206 
573 C 1 74.947 72.66 33.596 
575 C 1 73.231 72.941 35.349 
567 C 1 75.407 72.681 27.064 
568 C 1 76.4 72.866 28.073 
569 C 1 76.043 72.777 29.454 
570 C 1 77.006 73.081 30.463 
572 C 1 75.315 72.673 32.216 
574 C 1 75.953 72.758 34.605 
612 C 1 77.662 73.415 27.701 
613 C 1 78.474 74.015 28.71 
614 C 1 78.192 73.779 30.091 
615 C 1 78.926 74.473 31.1 
616 C 1 76.663 72.949 31.844 
617 C 1 77.582 73.368 32.853 
618 C 1 77.257 73.196 34.234 
619 C 1 78.119 73.723 35.243 
620 C 1 75.59 72.7 35.986 
651 C 1 78.675 74.205 32.481 
652 C 1 79.319 74.983 33.49 
653 C 1 79.102 74.686 34.871 
3772 H 2 73.9662 79.6166 27.5991 
291 C 1 69.847 79.444 27.276 
293 C 1 70.602 81.012 29.029 
295 C 1 70.264 80.464 31.419 
347 C 1 69.709 77.077 27.914 
348 C 1 69.963 79.794 28.657 
349 C 1 69.705 78.817 29.666 
350 C 1 69.777 79.177 31.047 
351 C 1 69.639 78.177 32.056 
352 C 1 70.449 80.782 32.8 
353 C 1 69.995 79.88 33.809 
354 C 1 70.14 80.218 35.19 
403 C 1 70.112 75.761 27.542 
405 C 1 69.66 77.442 29.295 
406 C 1 69.854 76.45 30.304 
407 C 1 69.762 76.806 31.684 
408 C 1 70.075 75.845 32.694 
409 C 1 69.667 78.543 33.437 
410 C 1 69.652 77.533 34.446 
411 C 1 69.635 77.901 35.827 
462 C 1 70.414 75.193 29.932 
466 C 1 69.94 76.188 34.074 
467 C 1 70.367 75.272 35.083 
3809 H 2 72.4232 76.9409 31.7225 
3782 H 2 72.789 76.1551 29.0319 
3780 O 3 73.04 76.3444 28.1278 
3777 O 3 72.5954 77.2747 33.8744 
3778 H 2 72.4183 77.3884 34.8082 
3807 O 3 72.7966 76.8896 30.8426 
3781 H 2 72.8571 77.2775 28.0183 
3779 H 2 72.8619 78.1433 33.5731 
3808 H 2 73.0931 77.7803 30.6554 
3773 H 2 72.7841 79.2828 28.484 
3771 O 3 73.1634 79.0959 27.6253 
3756 O 3 73.2916 79.4482 30.5871 
3758 H 2 73.0561 79.9026 31.3959 
3806 H 2 73.1854 80.0299 34.3263 
3804 O 3 73.3928 79.7446 33.4364 
3805 H 2 74.3492 79.7518 33.3989 
3757 H 2 74.2488 79.4519 30.5797 
3770 H 2 74.2582 75.9378 30.7677 
3790 H 2 74.166 76.3913 33.5889 
3764 H 2 74.7995 75.9523 27.9863 
3789 O 3 74.966 75.8658 33.5761 
3796 H 2 74.7539 75.5415 35.5456 
3791 H 2 75.0367 75.5582 32.6725 
3753 O 3 75.4629 80.2033 27.3488 
3799 H 2 76.0168 79.8442 32.1046 
3792 O 3 75.8105 80.0458 30.1478 
3793 H 2 75.6751 80.3502 29.2504 
3798 O 3 76.0714 79.834 33.0602 
3785 H 2 76.4155 80.1234 35.3219 
3768 O 3 75.1708 75.6517 30.7283 
3762 O 3 75.6933 75.6236 27.8895 
3769 H 2 75.3042 75.4003 29.8144 
3763 H 2 76.2466 76.3966 28.0012 
3754 H 2 76.097 79.4944 27.4566 
3787 H 2 76.2865 76.9181 33.6985 
3776 H 2 76.4305 77.1257 30.4747 
3788 H 2 77.5794 77.2829 34.3966 
3767 H 2 77.8355 77.6935 28.4665 
3765 O 3 77.1039 77.9724 27.9159 
3786 O 3 77.084 77.4368 33.5921 
3775 H 2 77.4242 77.2965 31.6039 
3774 O 3 77.1965 77.6356 30.7382 
3800 H 2 76.6842 79.1259 33.2581 
3794 H 2 76.6055 79.5146 30.1036 
61 C 1 80.127 79.023 27.223 
62 C 1 79.831 79.989 28.232 
63 C 1 80.224 78.294 29.985 
64 C 1 80.144 78.932 32.375 
91 C 1 79.143 81.181 27.861 
93 C 1 79.959 79.644 29.613 
94 C 1 79.548 80.567 30.622 
95 C 1 79.718 80.241 32.003 
96 C 1 79.198 81.107 33.012 
97 C 1 80.199 78.569 33.756 
98 C 1 79.988 79.557 34.765 
138 C 1 79.407 80.804 34.393 
646 C 1 80.225 77.65 27.595 
647 C 1 79.37 75.059 28.339 
648 C 1 79.84 75.954 29.348 
649 C 1 79.689 75.618 30.729 
650 C 1 80.047 76.563 31.738 
654 C 1 79.648 75.536 35.88 
676 C 1 80.191 77.284 28.976 
677 C 1 80.234 77.926 31.366 
678 C 1 79.938 76.212 33.118 
679 C 1 80.179 77.193 34.127 
680 C 1 80.113 76.831 35.508 
181 C 1 74.646 83.251 27.754 
183 C 1 74.007 83.177 30.144 
235 C 1 73.294 82.999 27.383 
236 C 1 72.367 82.596 28.392 
237 C 1 72.695 82.763 29.773 
238 C 1 71.824 82.25 30.782 
239 C 1 74.371 83.229 31.525 
240 C 1 73.381 83.026 32.534 
241 C 1 73.737 83.122 33.915 
242 C 1 72.779 82.801 34.924 
292 C 1 71.26 81.778 28.02 
294 C 1 70.824 81.305 30.41 
296 C 1 72.129 82.456 32.162 
297 C 1 71.327 81.842 33.171 
298 C 1 71.605 82.083 34.552 
299 C 1 70.883 81.376 35.561 
132 C 1 77.317 82.693 28.498 
184 C 1 76.726 82.947 30.888 
92 C 1 78.455 81.921 28.87 
135 C 1 77.949 82.318 31.26 
187 C 1 75.106 83.256 34.287 
243 C 1 75.473 83.232 35.668 
137 C 1 77.399 82.651 33.649 
133 C 1 76.375 83.06 29.507 
188 C 1 77.718 82.469 35.03 
185 C 1 75.747 83.197 31.897 
131 C 1 76.983 82.847 27.117 
189 C 1 76.812 82.915 36.039 
139 C 1 78.785 81.601 35.402 
182 C 1 75.014 83.259 29.135 
134 C 1 78.722 81.667 30.251 
136 C 1 78.244 82.099 32.64 
186 C 1 76.108 83.128 33.278 
469 C 1 70.726 74.738 37.473 
524 C 1 71.697 73.763 37.102 
525 C 1 72.552 73.225 38.111 
527 C 1 71.148 74.252 39.863 
528 C 1 70.9 74.524 41.244 
529 C 1 71.625 73.82 42.253 
576 C 1 74.214 72.709 36.358 
577 C 1 73.851 72.772 37.739 
578 C 1 74.855 72.66 38.748 
579 C 1 72.23 73.402 39.491 
580 C 1 73.144 72.971 40.5 
581 C 1 72.802 73.108 41.881 
582 C 1 73.761 72.791 42.89 
583 C 1 71.346 74.06 43.634 
584 C 1 72.151 73.45 44.643 
624 C 1 74.488 72.679 40.129 
628 C 1 73.406 72.885 44.271 
621 C 1 76.576 72.92 36.995 
622 C 1 76.222 72.818 38.376 
623 C 1 77.174 73.156 39.385 
625 C 1 75.498 72.69 41.138 
626 C 1 75.131 72.663 42.519 
627 C 1 76.133 72.797 43.528 
655 C 1 77.818 73.512 36.624 
656 C 1 78.609 74.14 37.633 
657 C 1 78.335 73.895 39.013 
658 C 1 79.045 74.614 40.022 
659 C 1 76.836 73.012 40.766 
660 C 1 77.74 73.463 41.775 
661 C 1 77.421 73.279 43.156 
662 C 1 78.264 73.836 44.165 
663 C 1 75.772 72.726 44.908 
686 C 1 78.803 74.337 41.403 
688 C 1 79.213 74.832 43.793 
355 C 1 69.799 79.267 36.199 
357 C 1 70.499 80.86 37.951 
358 C 1 70.711 81.16 39.332 
359 C 1 70.18 80.301 40.341 
363 C 1 70.767 81.233 44.484 
412 C 1 69.743 76.896 36.836 
413 C 1 69.902 79.62 37.579 
414 C 1 69.678 78.635 38.589 
415 C 1 69.738 78.998 39.969 
416 C 1 69.635 77.993 40.978 
417 C 1 70.354 80.625 41.722 
418 C 1 69.931 79.707 42.731 
419 C 1 70.065 80.05 44.112 
468 C 1 70.191 75.595 36.464 
470 C 1 69.681 77.259 38.217 
471 C 1 69.91 76.275 39.226 
472 C 1 69.805 76.627 40.607 
473 C 1 70.151 75.678 41.616 
474 C 1 69.65 78.36 42.359 
475 C 1 69.67 77.35 43.368 
476 C 1 69.641 77.717 44.749 
526 C 1 70.513 75.038 38.854 
530 C 1 70.004 76.015 42.997 
531 C 1 70.463 75.115 44.006 
3855 O 3 72.9039 76.8633 42.3729 
3831 O 3 72.7846 76.9849 39.4296 
3823 H 2 72.0698 76.9209 37.2996 
3832 H 2 72.4986 76.9467 40.3423 
3856 H 2 72.6145 76.5406 43.2263 
3833 H 2 72.9811 77.9094 39.2781 
3815 H 2 73.1251 78.5078 42.2703 
3813 O 3 73.1987 79.4603 42.3305 
3801 O 3 73.2177 79.5867 39.2168 
3814 H 2 73.1106 79.6492 43.2648 
3822 O 3 72.5876 77.3962 36.6499 
3803 H 2 72.9817 79.8621 40.1026 
3817 H 2 72.8758 80.5554 36.3784 
3802 H 2 74.1723 79.6536 39.1911 
3857 H 2 73.8129 76.5718 42.3017 
3824 H 2 73.4372 76.9553 36.651 
3859 H 2 74.8905 79.9329 44.439 
3821 H 2 74.2657 76.1499 39.2038 
3842 H 2 74.8624 79.9546 41.9402 
3818 H 2 73.2164 79.0924 36.5664 
3795 O 3 74.8784 75.8989 36.4248 
3816 O 3 73.4884 79.878 36.0919 
3797 H 2 75.7626 76.2652 36.412 
3848 H 2 75.1585 75.6189 40.8209 
3846 O 3 75.2822 75.658 41.7692 
3851 H 2 75.0092 75.5407 43.8371 
3819 O 3 75.0709 75.6535 39.0572 
3838 H 2 75.947 79.9301 37.9526 
3841 H 2 75.7762 79.7643 40.7483 
3837 O 3 75.8826 79.6225 38.8568 
3840 O 3 75.7618 80.0975 41.6455 
3860 H 2 76.1274 80.3809 43.6898 
3858 O 3 75.8446 79.9702 44.5068 
3820 H 2 75.0422 75.4181 38.1299 
3847 H 2 76.0704 76.1883 41.8867 
3811 H 2 76.4457 76.6052 39.42 
3829 H 2 77.5267 77.7587 43.1856 
3812 H 2 77.4793 77.1285 40.3945 
3828 O 3 77.0839 77.63 42.3468 
3810 O 3 77.1902 77.2032 39.485 
3827 H 2 77.4931 77.0645 37.4331 
3830 H 2 76.7211 78.4895 42.1325 
3839 H 2 76.4413 78.8458 38.8864 
99 C 1 80.087 79.202 36.146 
100 C 1 79.757 80.157 37.155 
101 C 1 80.209 78.477 38.907 
102 C 1 80.232 78.11 40.288 
103 C 1 80.107 79.113 41.297 
142 C 1 79.898 79.818 38.535 
143 C 1 79.455 80.726 39.544 
144 C 1 79.636 80.405 40.925 
146 C 1 80.175 78.751 42.678 
147 C 1 79.929 79.731 43.687 
196 C 1 79.305 80.957 43.315 
681 C 1 80.233 77.834 36.517 
682 C 1 79.468 75.215 37.261 
683 C 1 79.907 76.125 38.27 
684 C 1 79.768 75.785 39.651 
685 C 1 80.093 76.741 40.66 
687 C 1 79.42 75.137 42.412 
689 C 1 79.729 75.701 44.802 
702 C 1 80.211 77.467 37.898 
703 C 1 79.996 76.386 42.041 
704 C 1 80.202 77.375 43.05 
705 C 1 80.149 77.011 44.43 
3849 O 3 75.1348 75.8783 44.724 
3850 H 2 75.9637 76.3554 44.684 
3825 O 3 77.0465 77.2089 36.5988 
3826 H 2 76.8351 78.1424 36.5982 
3783 O 3 76.1238 79.7297 36.1442 
3784 H 2 75.2034 79.9819 36.2178 
244 C 1 74.463 83.238 36.677 
245 C 1 74.83 83.258 38.057 
246 C 1 73.826 83.142 39.067 
250 C 1 74.922 83.259 43.209 
300 C 1 73.12 82.939 36.305 
301 C 1 72.208 82.504 37.314 
302 C 1 72.53 82.682 38.695 
303 C 1 71.677 82.14 39.704 
304 C 1 74.189 83.206 40.447 
305 C 1 73.206 82.969 41.456 
306 C 1 73.558 83.077 42.837 
307 C 1 72.612 82.723 43.846 
356 C 1 71.13 81.649 36.942 
360 C 1 71.975 82.356 41.085 
361 C 1 71.194 81.714 42.094 
362 C 1 71.464 81.965 43.475 
140 C 1 79.029 81.325 36.783 
141 C 1 78.316 82.04 37.792 
145 C 1 79.087 81.253 41.934 
190 C 1 77.151 82.773 37.42 
191 C 1 76.197 83.106 38.429 
192 C 1 78.591 81.796 39.173 
193 C 1 77.796 82.42 40.182 
194 C 1 78.099 82.211 41.563 
195 C 1 77.235 82.734 42.572 
197 C 1 78.657 81.732 44.324 
247 C 1 76.552 83.006 39.81 
248 C 1 75.564 83.222 40.819 
249 C 1 75.928 83.165 42.2 
251 C 1 77.56 82.563 43.952 
252 C 1 76.639 82.978 44.962 
308 C 1 75.29 83.247 44.59 
533 C 1 70.841 74.594 46.395 
585 C 1 71.845 73.654 46.024 
586 C 1 72.718 73.146 47.033 
587 C 1 70.617 74.886 47.776 
588 C 1 71.279 74.123 48.785 
589 C 1 71.021 74.386 50.166 
590 C 1 71.771 73.708 51.175 
592 C 1 70.564 74.962 52.928 
629 C 1 74.396 72.687 45.28 
630 C 1 74.032 72.737 46.661 
632 C 1 72.389 73.311 48.414 
633 C 1 73.318 72.912 49.423 
634 C 1 72.972 73.037 50.803 
635 C 1 73.941 72.754 51.813 
636 C 1 71.483 73.938 52.556 
637 C 1 72.309 73.356 53.565 
667 C 1 74.672 72.666 49.051 
671 C 1 73.583 72.835 53.193 
631 C 1 75.039 72.661 47.67 
664 C 1 76.75 72.98 45.918 
665 C 1 76.4 72.866 47.298 
666 C 1 77.34 73.237 48.307 
668 C 1 75.681 72.712 50.06 
669 C 1 75.315 72.673 51.441 
670 C 1 76.311 72.842 52.45 
690 C 1 77.97 73.615 45.546 
691 C 1 78.739 74.27 46.555 
692 C 1 78.474 74.015 47.936 
693 C 1 79.159 74.759 48.945 
694 C 1 77.006 73.081 49.688 
695 C 1 77.894 73.563 50.697 
696 C 1 77.582 73.368 52.078 
697 C 1 78.405 73.954 53.087 
698 C 1 75.953 72.758 53.831 
710 C 1 78.926 74.473 50.325 
712 C 1 79.319 74.983 52.715 
3898 H 2 73.5601 78.5536 53.4933 
3872 H 2 73.7811 76.7805 45.0933 
3870 O 3 72.949 77.1356 45.4058 
3874 H 2 73.1543 78.7614 45.2256 
3836 H 2 72.7666 76.5399 49.0323 
3873 O 3 73.279 79.7099 45.2569 
420 C 1 69.756 79.088 45.121 
422 C 1 70.401 80.704 46.873 
423 C 1 70.602 81.012 48.254 
424 C 1 70.102 80.134 49.263 
428 C 1 70.656 81.087 53.406 
477 C 1 69.783 76.717 45.758 
478 C 1 69.847 79.444 46.502 
479 C 1 69.658 78.452 47.511 
480 C 1 69.705 78.817 48.892 
481 C 1 69.637 77.809 49.901 
482 C 1 70.264 80.464 50.644 
483 C 1 69.874 79.532 51.653 
484 C 1 69.995 79.88 53.034 
485 C 1 69.72 78.907 54.043 
532 C 1 70.276 75.432 45.386 
534 C 1 69.709 77.077 47.139 
535 C 1 69.971 76.101 48.148 
536 C 1 69.854 76.45 49.529 
537 C 1 70.233 75.513 50.538 
538 C 1 69.639 78.177 51.281 
539 C 1 69.694 77.168 52.291 
540 C 1 69.652 77.533 53.671 
591 C 1 70.075 75.845 51.919 
3834 O 3 72.8837 76.7853 48.1145 
3871 H 2 72.9207 76.9 46.3332 
3890 H 2 72.882 76.9686 51.7527 
3888 O 3 73.0568 77.2899 50.8681 
3889 H 2 73.0921 78.2419 50.9612 
3865 H 2 73.0104 78.5905 48.0133 
3864 O 3 73.264 79.5029 48.153 
3875 H 2 72.9058 79.9734 46.0981 
3899 H 2 73.5174 79.8137 52.6553 
3863 H 2 73.9812 80.2445 49.7158 
3861 O 3 74.3498 80.1748 50.5964 
3866 H 2 74.1306 79.5751 47.753 
3835 H 2 73.4729 76.1189 47.7612 
3853 H 2 74.6894 76.6452 50.4377 
3897 O 3 73.762 79.4889 53.5218 
3903 O 3 73.1621 76.7909 53.4363 
3904 H 2 74.0281 76.3963 53.3337 
3867 O 3 77.1489 77.7403 45.2044 
3868 H 2 76.7703 78.6123 45.093 
3862 H 2 75.2582 79.9077 50.4559 
3896 H 2 75.6937 79.1639 53.2984 
3891 O 3 76.2227 75.9299 52.8732 
3882 O 3 75.9304 79.9595 47.3593 
3883 H 2 75.9715 80.1279 46.4179 
3852 O 3 75.4686 76.1488 50.1875 
3844 H 2 75.2863 75.3154 46.5937 
3843 O 3 75.2837 75.7217 47.4604 
3854 H 2 75.3403 75.9524 49.2595 
3845 H 2 76.0762 76.2583 47.4763 
3893 H 2 75.8725 75.763 51.9981 
3892 H 2 76.5514 76.828 52.8329 
3878 H 2 76.3694 77.8001 50.2123 
3877 H 2 77.0819 78.6838 51.214 
3869 H 2 77.3251 77.6732 46.1428 
3881 H 2 77.9852 77.5922 48.5944 
3879 O 3 77.3189 77.4575 47.9205 
3876 O 3 76.672 78.6979 50.3492 
3880 H 2 76.762 78.2341 47.975 
104 C 1 80.234 78.018 45.44 
148 C 1 80.04 79.38 45.068 
149 C 1 79.678 80.323 46.077 
150 C 1 80.188 78.66 47.829 
151 C 1 80.224 78.294 49.21 
152 C 1 80.064 79.292 50.219 
200 C 1 79.831 79.989 47.458 
201 C 1 79.356 80.881 48.467 
202 C 1 79.548 80.567 49.848 
204 C 1 80.144 78.932 51.6 
205 C 1 79.865 79.903 52.609 
206 C 1 79.988 79.557 53.99 
259 C 1 79.198 81.107 52.237 
706 C 1 79.561 75.374 46.183 
707 C 1 79.968 76.299 47.192 
708 C 1 79.84 75.954 48.573 
709 C 1 80.132 76.921 49.582 
711 C 1 79.515 75.294 51.335 
713 C 1 79.805 75.869 53.724 
717 C 1 80.225 77.65 46.82 
718 C 1 80.047 76.563 50.963 
719 C 1 80.219 77.559 51.972 
720 C 1 80.179 77.193 53.353 
3894 O 3 76.6137 78.9145 53.2103 
3884 H 2 76.2965 80.7478 47.7603 
3895 H 2 76.9974 79.1067 54.0659 
309 C 1 74.28 83.218 45.599 
310 C 1 74.646 83.251 46.98 
311 C 1 73.647 83.1 47.989 
315 C 1 74.738 83.255 52.131 
364 C 1 72.948 82.873 45.227 
365 C 1 72.052 82.406 46.236 
366 C 1 72.367 82.596 47.617 
367 C 1 71.534 82.024 48.626 
368 C 1 74.007 83.177 49.37 
369 C 1 73.034 82.906 50.379 
370 C 1 73.381 83.026 51.759 
371 C 1 72.448 82.64 52.768 
421 C 1 71.004 81.514 45.864 
425 C 1 71.824 82.25 50.007 
426 C 1 71.066 81.582 51.016 
427 C 1 71.327 81.842 52.397 
253 C 1 76.983 82.847 46.342 
260 C 1 78.524 81.859 53.246 
372 C 1 75.106 83.256 53.512 
203 C 1 78.97 81.395 50.857 
314 C 1 75.747 83.197 51.122 
257 C 1 77.949 82.318 50.485 
317 C 1 76.464 83.034 53.884 
254 C 1 76.018 83.147 47.351 
199 C 1 78.172 82.155 46.714 
255 C 1 78.455 81.921 48.095 
312 C 1 76.375 83.06 48.732 
313 C 1 75.381 83.24 49.741 
198 C 1 78.91 81.465 45.705 
256 C 1 77.64 82.517 49.104 
316 C 1 77.399 82.651 52.875 
258 C 1 77.067 82.811 51.494 
594 C 1 70.96 74.454 55.318 
638 C 1 71.996 73.549 54.946 
639 C 1 72.886 73.071 55.955 
640 C 1 70.726 74.738 56.699 
672 C 1 74.58 72.672 54.202 
673 C 1 74.214 72.709 55.583 
675 C 1 72.552 73.225 57.336 
989 C 1 71.414 73.998 57.708 
990 C 1 71.148 74.252 59.088 
991 C 1 71.92 73.601 60.097 
993 C 1 70.671 74.812 61.85 
1045 C 1 73.494 72.859 58.345 
1046 C 1 73.144 72.971 59.726 