ITEM: TIMESTEP
15000000
ITEM: NUMBER OF ATOMS
5084
ITEM: BOX BOUNDS pp pp pp
0.0000000000000000e+00 1.5000000000000000e+02
0.0000000000000000e+00 1.5000000000000000e+02
0.0000000000000000e+00 2.8837799999999999e+02
ITEM: ATOMS id element type x y z 
265 C 1 71.414 73.998 0.032 
266 C 1 71.148 74.252 1.413 
267 C 1 71.92 73.601 2.422 
269 C 1 70.671 74.812 4.174 
271 C 1 71.084 74.318 6.564 
321 C 1 73.494 72.859 0.669 
322 C 1 73.144 72.971 2.05 
323 C 1 74.123 72.722 3.059 
324 C 1 71.625 73.82 3.803 
325 C 1 72.471 73.267 4.812 
326 C 1 72.151 73.45 6.192 
327 C 1 73.057 73.003 7.202 
328 C 1 70.841 74.594 7.945 
329 C 1 71.554 73.878 8.954 
377 C 1 74.855 72.66 0.297 
381 C 1 73.761 72.791 4.44 
382 C 1 74.763 72.662 5.449 
383 C 1 74.396 72.687 6.83 
385 C 1 72.718 73.146 8.582 
378 C 1 75.862 72.742 1.306 
379 C 1 75.498 72.69 2.687 
380 C 1 76.488 72.892 3.696 
384 C 1 75.407 72.681 7.839 
433 C 1 79.267 74.907 0.191 
434 C 1 77.174 73.156 0.935 
435 C 1 78.045 73.669 1.944 
436 C 1 77.74 73.463 3.325 
437 C 1 78.542 74.077 4.334 
438 C 1 76.133 72.797 5.077 
439 C 1 77.091 73.118 6.086 
440 C 1 76.75 72.98 7.467 
441 C 1 77.662 73.415 8.476 
490 C 1 79.045 74.614 1.572 
494 C 1 78.264 73.836 5.714 
495 C 1 78.986 74.543 6.724 
496 C 1 78.739 74.27 8.104 
3661 H 2 75.6501 74.9457 7.0982 
105 C 1 70.029 79.965 0.51 
109 C 1 70.55 80.936 4.652 
154 C 1 69.678 78.635 0.138 
155 C 1 69.646 77.625 1.147 
156 C 1 70.18 80.301 1.891 
157 C 1 69.822 79.356 2.9 
158 C 1 69.931 79.707 4.281 
159 C 1 69.691 78.726 5.29 
160 C 1 70.767 81.233 6.033 
161 C 1 70.221 80.383 7.042 
162 C 1 70.401 80.704 8.423 
209 C 1 69.91 76.275 0.775 
210 C 1 70.321 75.352 1.784 
211 C 1 69.635 77.993 2.528 
212 C 1 69.725 76.986 3.537 
213 C 1 69.67 77.35 4.918 
214 C 1 69.881 76.362 5.927 
215 C 1 69.756 79.088 6.67 
216 C 1 69.636 78.085 7.679 
268 C 1 70.151 75.678 3.165 
270 C 1 70.463 75.115 5.555 
272 C 1 69.783 76.717 7.308 
273 C 1 70.112 75.761 8.317 
5078 H 2 73.1152 77.5527 1.76617 
3655 H 2 73.2521 78.4794 7.48706 
3641 H 2 73.2728 78.2018 4.74395 
3640 H 2 73.0242 79.302 5.75368 
3639 O 3 73.0839 79.1376 4.8126 
3628 H 2 72.3997 79.4999 2.36544 
3627 O 3 72.8985 79.1988 1.606 
3654 O 3 73.3137 79.4268 7.60893 
3629 H 2 73.7928 79.4961 1.77303 
3637 H 2 74.6803 79.9134 4.80207 
3656 H 2 73.0181 79.5729 8.50755 
3666 O 3 72.906 76.5549 7.4035 
5076 O 3 73.0945 76.6009 1.86588 
3667 H 2 72.4609 76.2888 6.59893 
3644 H 2 73.0576 76.4617 3.60421 
3642 O 3 73.2015 76.5333 4.54782 
3643 H 2 74.095 76.2162 4.67916 
5077 H 2 72.6728 76.285 1.06673 
3668 H 2 73.7508 76.1062 7.36998 
3631 H 2 74.762 76.1896 2.01456 
3653 H 2 75.0901 79.8544 7.63725 
5060 H 2 77.5861 78.4488 0.717312 
3636 O 3 75.6055 80.155 4.84562 
3625 H 2 75.5554 80.4448 2.81825 
3638 H 2 75.7505 80.3855 5.76328 
3651 O 3 75.9739 80.1792 7.80952 
3624 O 3 75.4818 80.0723 1.93955 
3652 H 2 76.462 79.4068 8.0949 
3626 H 2 75.9874 79.2605 1.97988 
3649 H 2 76.6365 78.4778 5.23047 
3645 O 3 75.7842 75.7165 4.87801 
3630 O 3 75.7024 76.0203 1.95758 
3647 H 2 76.0484 75.7098 3.95801 
3660 O 3 75.4417 75.5521 7.80887 
3632 H 2 75.8902 76.0226 1.01899 
3646 H 2 76.3199 76.4025 5.27646 
3623 H 2 76.8145 77.3624 2.50987 
3664 H 2 76.4701 77.0401 8.34179 
3621 O 3 77.3028 78.1826 2.5806 
3622 H 2 77.4781 78.2776 3.51681 
3663 O 3 77.1741 77.6885 8.35119 
3650 H 2 77.3743 77.8532 6.39551 
3648 O 3 77.3636 77.8913 5.43913 
1 C 1 80.209 78.477 0.457 
2 C 1 80.015 79.469 1.466 
3 C 1 80.217 78.386 5.608 
4 C 1 79.455 80.726 1.094 
6 C 1 80.107 79.113 2.847 
7 C 1 79.795 80.073 3.856 
8 C 1 79.929 79.731 5.236 
9 C 1 79.503 80.647 6.246 
10 C 1 80.234 78.018 6.989 
11 C 1 80.127 79.023 7.998 
22 C 1 79.678 80.323 7.626 
23 C 1 79.143 81.181 8.635 
489 C 1 80.165 77.102 0.828 
491 C 1 79.605 75.455 2.581 
492 C 1 79.42 75.137 3.962 
493 C 1 79.874 76.039 4.971 
544 C 1 80.093 76.741 2.209 
545 C 1 80.23 77.742 3.218 
546 C 1 80.202 77.375 4.599 
547 C 1 79.729 75.701 6.352 
548 C 1 80.071 76.652 7.361 
549 C 1 79.968 76.299 8.742 
3662 H 2 75.7127 75.0926 8.60365 
5041 H 2 75.6661 80.3912 0.10745 
38 C 1 74.554 83.245 3.378 
65 C 1 73.826 83.142 0.616 
66 C 1 72.863 82.837 1.625 
67 C 1 73.206 82.969 3.006 
68 C 1 72.287 82.55 4.015 
69 C 1 74.922 83.259 4.759 
70 C 1 73.916 83.16 5.768 
71 C 1 74.28 83.218 7.148 
72 C 1 73.294 82.999 8.157 
106 C 1 71.677 82.14 1.253 
107 C 1 70.943 81.446 2.262 
108 C 1 71.194 81.714 3.643 
110 C 1 72.612 82.723 5.396 
111 C 1 71.75 82.196 6.405 
112 C 1 72.052 82.406 7.786 
113 C 1 71.26 81.778 8.795 
5 C 1 78.848 81.533 2.103 
15 C 1 77.48 82.608 0.351 
16 C 1 77.796 82.42 1.731 
17 C 1 76.898 82.882 2.74 
18 C 1 79.087 81.253 3.484 
19 C 1 78.386 81.981 4.493 
20 C 1 78.657 81.732 5.874 
21 C 1 77.873 82.37 6.883 
36 C 1 75.198 83.253 0.988 
37 C 1 75.564 83.222 2.369 
39 C 1 77.235 82.734 4.121 
40 C 1 76.287 83.084 5.13 
41 C 1 76.639 82.978 6.511 
42 C 1 75.656 83.21 7.52 
43 C 1 78.172 82.155 8.264 
73 C 1 76.018 83.147 8.901 
330 C 1 71.279 74.123 10.335 
331 C 1 72.073 73.499 11.344 
333 C 1 70.783 74.666 13.097 
334 C 1 70.564 74.962 14.477 
335 C 1 71.213 74.187 15.486 
386 C 1 73.672 72.812 9.591 
387 C 1 73.318 72.912 10.972 
388 C 1 74.305 72.697 11.981 
389 C 1 71.771 73.708 12.725 
390 C 1 72.635 73.185 13.734 
391 C 1 72.309 73.356 15.115 
392 C 1 73.231 72.941 16.124 
393 C 1 70.96 74.454 16.867 
394 C 1 71.697 73.763 17.876 
446 C 1 73.941 72.754 13.362 
447 C 1 74.947 72.66 14.371 
448 C 1 74.58 72.672 15.752 
450 C 1 72.886 73.071 17.505 
442 C 1 75.039 72.661 9.22 
443 C 1 76.043 72.777 10.229 
444 C 1 75.681 72.712 11.609 
445 C 1 76.663 72.949 12.619 
449 C 1 75.59 72.7 16.761 
498 C 1 77.34 73.237 9.857 
499 C 1 78.192 73.779 10.866 
500 C 1 77.894 73.563 12.247 
501 C 1 78.675 74.205 13.256 
502 C 1 76.311 72.842 13.999 
503 C 1 77.257 73.196 15.008 
504 C 1 76.921 73.046 16.389 
505 C 1 77.818 73.512 17.398 
551 C 1 79.159 74.759 10.494 
555 C 1 78.405 73.954 14.637 
556 C 1 79.102 74.686 15.646 
557 C 1 78.865 74.404 17.027 
3679 H 2 75.6736 74.9732 11.8083 
3658 H 2 73.0879 76.4111 9.23693 
163 C 1 69.963 79.794 9.432 
167 C 1 70.449 80.782 13.575 
217 C 1 69.658 78.452 9.06 
218 C 1 69.66 77.442 10.069 
219 C 1 70.102 80.134 10.813 
220 C 1 69.777 79.177 11.822 
221 C 1 69.874 79.532 13.203 
222 C 1 69.667 78.543 14.212 
223 C 1 70.656 81.087 14.955 
224 C 1 70.14 80.218 15.964 
225 C 1 70.308 80.545 17.345 
274 C 1 69.971 76.101 9.698 
275 C 1 70.414 75.193 10.707 
276 C 1 69.637 77.809 11.45 
277 C 1 69.762 76.806 12.459 
278 C 1 69.694 77.168 13.84 
279 C 1 69.94 76.188 14.849 
280 C 1 69.72 78.907 15.593 
281 C 1 69.635 77.901 16.602 
282 C 1 69.644 78.268 17.983 
332 C 1 70.233 75.513 12.087 
336 C 1 69.829 76.538 16.23 
337 C 1 70.191 75.595 17.239 
3677 H 2 72.7902 77.745 13.2184 
3692 H 2 72.7757 77.722 16.168 
3674 H 2 72.9478 78.3231 10.3573 
3672 O 3 72.9922 79.2789 10.3827 
3688 H 2 73.0245 79.7437 12.1262 
3687 O 3 73.2598 79.5302 13.0291 
3704 H 2 72.8056 79.7606 14.9703 
3702 O 3 73.0971 79.3637 15.7911 
3703 H 2 74.0185 79.6126 15.864 
3673 H 2 73.9217 79.4729 10.5034 
3689 H 2 74.1219 79.9274 13.1528 
3676 H 2 72.8037 76.6341 12.19 
3675 O 3 72.8572 76.794 13.1322 
3690 O 3 72.8792 76.7722 16.1086 
3691 H 2 72.6601 76.5633 15.2005 
3657 O 3 73.2625 76.5205 10.1717 
3659 H 2 74.0728 76.0339 10.323 
3706 H 2 74.3993 76.0311 16.376 
3694 H 2 74.6923 75.9052 13.3202 
3734 H 2 73.4494 79.7986 17.6576 
3715 H 2 72.8512 76.7119 17.9206 
3665 H 2 77.4218 77.7604 9.27298 
3671 H 2 75.8971 80.493 10.0035 
3684 O 3 75.9471 79.9171 13.6335 
3669 O 3 75.6276 79.9175 10.7193 
3701 H 2 75.8162 80.4261 17.4439 
3670 H 2 75.8395 80.4074 11.5139 
3686 H 2 76.1537 80.4424 14.4065 
3699 O 3 75.7398 80.0876 16.5518 
3685 H 2 76.3812 79.0785 13.7902 
3700 H 2 76.2694 79.2902 16.5515 
3683 H 2 76.6408 78.4166 11.1467 
3707 H 2 75.4207 75.5251 17.3723 
3695 H 2 75.323 75.5826 14.6581 
3693 O 3 75.524 75.6596 13.7254 
3705 O 3 75.307 75.7353 16.4454 
3678 O 3 75.7043 75.5066 11.0142 
3709 H 2 76.5146 77.0094 16.7071 
3680 H 2 76.3258 76.2054 11.2183 
3697 H 2 76.7252 76.9149 13.8555 
3708 O 3 77.1331 77.7316 16.8176 
3682 H 2 77.5911 77.7419 12.1129 
3681 O 3 77.3461 77.7707 11.1881 
3698 H 2 77.403 77.7114 14.9501 
3696 O 3 77.2294 77.714 14.0088 
12 C 1 80.188 78.66 9.379 
13 C 1 79.959 79.644 10.388 
14 C 1 80.199 78.569 14.53 
24 C 1 79.356 80.881 10.016 
26 C 1 80.064 79.292 11.769 
27 C 1 79.718 80.241 12.778 
28 C 1 79.865 79.903 14.159 
29 C 1 79.407 80.804 15.168 
30 C 1 80.229 78.202 15.911 
31 C 1 80.087 79.202 16.92 
51 C 1 79.593 80.487 16.549 
497 C 1 79.37 75.059 9.113 
550 C 1 80.191 77.284 9.751 
552 C 1 79.689 75.618 11.503 
553 C 1 79.515 75.294 12.884 
554 C 1 79.938 76.212 13.893 
597 C 1 80.132 76.921 11.132 
598 C 1 80.234 77.926 12.141 
599 C 1 80.219 77.559 13.521 
600 C 1 79.805 75.869 15.274 
601 C 1 80.113 76.831 16.283 
602 C 1 80.022 76.475 17.664 
3710 H 2 77.4285 77.6579 17.7251 
76 C 1 74.371 83.229 12.3 
114 C 1 73.647 83.1 9.538 
115 C 1 72.695 82.763 10.547 
116 C 1 73.034 82.906 11.928 
117 C 1 72.129 82.456 12.937 
118 C 1 74.738 83.255 13.681 
119 C 1 73.737 83.122 14.69 
120 C 1 74.098 83.193 16.071 
121 C 1 73.12 82.939 17.08 
164 C 1 71.534 82.024 10.176 
165 C 1 70.824 81.305 11.185 
166 C 1 71.066 81.582 12.565 
168 C 1 72.448 82.64 14.318 
169 C 1 71.605 82.083 15.327 
170 C 1 71.899 82.304 16.708 
171 C 1 71.13 81.649 17.717 
122 C 1 75.837 83.182 17.823 
47 C 1 78.97 81.395 12.406 
74 C 1 75.014 83.259 9.91 
52 C 1 79.029 81.325 17.558 
77 C 1 77.067 82.811 13.043 
50 C 1 77.718 82.469 15.805 
48 C 1 78.244 82.099 13.415 
78 C 1 76.108 83.128 14.052 
79 C 1 76.464 83.034 15.433 
80 C 1 75.473 83.232 16.442 
46 C 1 76.726 82.947 11.663 
44 C 1 77.317 82.693 9.273 
49 C 1 78.524 81.859 14.796 
45 C 1 77.64 82.517 10.654 
25 C 1 78.722 81.667 11.025 
81 C 1 78.025 82.265 17.186 
75 C 1 75.381 83.24 11.291 
395 C 1 71.414 73.998 19.257 
396 C 1 72.23 73.402 20.266 
398 C 1 70.9 74.524 22.019 
399 C 1 70.671 74.812 23.4 
400 C 1 71.346 74.06 24.409 
451 C 1 73.851 72.772 18.514 
452 C 1 73.494 72.859 19.894 
453 C 1 74.488 72.679 20.903 
454 C 1 71.92 73.601 21.647 
455 C 1 72.802 73.108 22.656 
456 C 1 72.471 73.267 24.037 
457 C 1 73.406 72.885 25.046 
458 C 1 71.084 74.318 25.789 
459 C 1 71.845 73.654 26.798 
510 C 1 74.123 72.722 22.284 
512 C 1 74.763 72.662 24.674 
514 C 1 73.057 73.003 26.427 
506 C 1 75.223 72.668 18.142 
507 C 1 76.222 72.818 19.151 
508 C 1 75.862 72.742 20.532 
509 C 1 76.836 73.012 21.541 
511 C 1 75.131 72.663 23.293 
513 C 1 75.772 72.726 25.683 
559 C 1 77.502 73.323 18.779 
560 C 1 78.335 73.895 19.788 
561 C 1 78.045 73.669 21.169 
562 C 1 78.803 74.337 22.178 
563 C 1 76.488 72.892 22.922 
564 C 1 77.421 73.279 23.931 
565 C 1 77.091 73.118 25.311 
566 C 1 77.97 73.615 26.321 
604 C 1 79.267 74.907 19.416 
608 C 1 78.542 74.077 23.559 
609 C 1 79.213 74.832 24.568 
610 C 1 78.986 74.543 25.949 
3724 H 2 75.3415 74.9122 22.8585 
226 C 1 69.902 79.62 18.354 
228 C 1 70.711 81.16 20.107 
230 C 1 70.354 80.625 22.497 
283 C 1 69.681 77.259 18.992 
284 C 1 70.029 79.965 19.735 
285 C 1 69.738 78.998 20.744 
286 C 1 69.822 79.356 22.125 
287 C 1 69.65 78.36 23.134 
288 C 1 70.55 80.936 23.878 
289 C 1 70.065 80.05 24.887 
290 C 1 70.221 80.383 26.267 
338 C 1 70.039 75.93 18.62 
339 C 1 70.513 75.038 19.629 
340 C 1 69.646 77.625 20.372 
341 C 1 69.805 76.627 21.381 
342 C 1 69.725 76.986 22.762 
343 C 1 70.004 76.015 23.771 
344 C 1 69.691 78.726 24.515 
345 C 1 69.641 77.717 25.524 
346 C 1 69.636 78.085 26.905 
397 C 1 70.321 75.352 21.01 
401 C 1 69.881 76.362 25.152 
402 C 1 70.276 75.432 26.161 
3720 O 3 72.8722 76.982 21.631 
3721 H 2 73.1633 77.89 21.7148 
3760 H 2 73.3822 78.9087 24.7262 
3759 O 3 73.7066 79.7957 24.5704 
3761 H 2 73.2344 80.0906 23.7918 
3737 H 2 73.0711 79.8686 20.628 
3735 O 3 73.3047 79.81 21.5544 
3736 H 2 74.2409 80.0078 21.5788 
3733 H 2 74.2404 79.8642 18.9467 
3716 H 2 72.9349 77.9839 18.7371 
3732 O 3 73.3801 79.6315 18.5975 
3722 H 2 72.7192 76.8645 20.6935 
3740 H 2 72.6553 77.2591 26.4274 
3714 O 3 72.7538 77.047 18.8119 
3766 H 2 72.6217 77.5125 23.6768 
3765 O 3 72.8634 77.2782 24.5729 
3793 H 2 73.3382 80.3148 26.7677 
3767 H 2 73.5854 76.6579 24.4723 
3725 H 2 74.402 75.9813 22.3423 
3719 H 2 74.2489 76.1617 19.1431 
3785 H 2 75.3638 79.8293 24.893 
3783 O 3 76.301 79.8454 25.087 
3746 H 2 75.9423 80.264 23.1621 
3784 H 2 76.3477 79.9555 26.0367 
3744 O 3 75.9012 79.9395 22.2625 
3727 H 2 75.9322 80.2348 20.2406 
3726 O 3 75.9397 80.001 19.3124 
3728 H 2 76.614 79.3253 19.2406 
3745 H 2 76.4622 79.1639 22.2613 
3748 H 2 77.1396 78.2616 24.8144 
3718 H 2 75.1368 75.2957 20.0111 
3743 H 2 75.1412 75.5041 25.9721 
3717 O 3 75.047 75.6337 19.1201 
3723 O 3 75.2016 75.5045 22.1196 
3741 O 3 75.0417 75.6459 25.0307 
3742 H 2 75.804 76.1702 24.7852 
3713 H 2 76.4035 76.8857 19.4221 
3731 H 2 76.651 76.6656 22.0622 
3730 H 2 77.4083 77.3081 23.2049 
3711 O 3 77.1981 77.4194 19.4155 
3712 H 2 77.6481 77.1897 20.2285 
3729 O 3 77.1954 77.4226 22.2787 
3747 O 3 77.3246 77.3309 24.9401 
3749 H 2 77.4237 77.2316 25.8869 
32 C 1 80.16 78.842 18.301 
33 C 1 79.898 79.818 19.31 
34 C 1 80.232 78.11 21.063 
35 C 1 80.175 78.751 23.453 
53 C 1 79.252 81.033 18.938 
55 C 1 80.015 79.469 20.691 
56 C 1 79.636 80.405 21.7 
57 C 1 79.795 80.073 23.081 
58 C 1 79.305 80.957 24.09 
59 C 1 80.217 78.386 24.833 
60 C 1 80.04 79.38 25.843 
89 C 1 79.503 80.647 25.471 
558 C 1 79.468 75.215 18.036 
603 C 1 80.211 77.467 18.673 
605 C 1 79.768 75.785 20.425 
606 C 1 79.605 75.455 21.806 
607 C 1 79.996 76.386 22.815 
611 C 1 79.561 75.374 26.958 
641 C 1 80.165 77.102 20.054 
642 C 1 80.23 77.742 22.444 
643 C 1 79.874 76.039 24.196 
644 C 1 80.149 77.011 25.205 
645 C 1 80.071 76.652 26.586 
123 C 1 74.83 83.258 18.832 
125 C 1 74.189 83.206 21.222 
172 C 1 73.47 83.053 18.46 
173 C 1 72.53 82.682 19.47 
174 C 1 72.863 82.837 20.85 
175 C 1 71.975 82.356 21.859 
176 C 1 74.554 83.245 22.603 
177 C 1 73.558 83.077 23.612 
178 C 1 73.916 83.16 24.993 
179 C 1 72.948 82.873 26.002 
227 C 1 71.395 81.904 19.098 
229 C 1 70.943 81.446 21.488 
231 C 1 72.287 82.55 23.24 
232 C 1 71.464 81.965 24.249 
233 C 1 71.75 82.196 25.63 
234 C 1 71.004 81.514 26.639 
54 C 1 78.591 81.796 19.948 
82 C 1 77.151 82.773 18.195 
83 C 1 77.48 82.608 19.576 
84 C 1 76.552 83.006 20.585 
85 C 1 78.848 81.533 21.328 
86 C 1 78.099 82.211 22.337 
87 C 1 78.386 81.981 23.718 
88 C 1 77.56 82.563 24.727 
90 C 1 78.91 81.465 26.48 
124 C 1 75.198 83.253 20.213 
126 C 1 76.898 82.882 21.966 
127 C 1 75.928 83.165 22.975 
128 C 1 76.287 83.084 24.356 
129 C 1 75.29 83.247 25.365 
130 C 1 77.873 82.37 26.108 
180 C 1 75.656 83.21 26.745 
404 C 1 70.617 74.886 28.551 
460 C 1 71.554 73.878 28.179 
461 C 1 72.389 73.311 29.188 
463 C 1 71.021 74.386 30.941 
464 C 1 70.783 74.666 32.322 
465 C 1 71.483 73.938 33.331 
515 C 1 74.032 72.737 27.436 
516 C 1 73.672 72.812 28.817 
517 C 1 74.672 72.666 29.826 
518 C 1 72.073 73.499 30.569 
519 C 1 72.972 73.037 31.578 
520 C 1 72.635 73.185 32.959 
521 C 1 73.583 72.835 33.968 
522 C 1 71.213 74.187 34.712 
523 C 1 71.996 73.549 35.721 
571 C 1 74.305 72.697 31.206 
573 C 1 74.947 72.66 33.596 
575 C 1 73.231 72.941 35.349 
567 C 1 75.407 72.681 27.064 
568 C 1 76.4 72.866 28.073 
569 C 1 76.043 72.777 29.454 
570 C 1 77.006 73.081 30.463 
572 C 1 75.315 72.673 32.216 
574 C 1 75.953 72.758 34.605 
612 C 1 77.662 73.415 27.701 
613 C 1 78.474 74.015 28.71 
614 C 1 78.192 73.779 30.091 
615 C 1 78.926 74.473 31.1 
616 C 1 76.663 72.949 31.844 
617 C 1 77.582 73.368 32.853 
618 C 1 77.257 73.196 34.234 
619 C 1 78.119 73.723 35.243 
620 C 1 75.59 72.7 35.986 
651 C 1 78.675 74.205 32.481 
652 C 1 79.319 74.983 33.49 
653 C 1 79.102 74.686 34.871 
3739 H 2 72.8607 78.14 27.6414 
3738 O 3 72.7511 77.2259 27.3792 
3820 H 2 73.5931 79.8984 34.8623 
3772 H 2 73.6952 76.1745 30.1321 
3814 H 2 73.0138 76.6486 32.1065 
3792 O 3 73.6059 79.7516 27.4939 
291 C 1 69.847 79.444 27.276 
293 C 1 70.602 81.012 29.029 
295 C 1 70.264 80.464 31.419 
347 C 1 69.709 77.077 27.914 
348 C 1 69.963 79.794 28.657 
349 C 1 69.705 78.817 29.666 
350 C 1 69.777 79.177 31.047 
351 C 1 69.639 78.177 32.056 
352 C 1 70.449 80.782 32.8 
353 C 1 69.995 79.88 33.809 
354 C 1 70.14 80.218 35.19 
403 C 1 70.112 75.761 27.542 
405 C 1 69.66 77.442 29.295 
406 C 1 69.854 76.45 30.304 
407 C 1 69.762 76.806 31.684 
408 C 1 70.075 75.845 32.694 
409 C 1 69.667 78.543 33.437 
410 C 1 69.652 77.533 34.446 
411 C 1 69.635 77.901 35.827 
462 C 1 70.414 75.193 29.932 
466 C 1 69.94 76.188 34.074 
467 C 1 70.367 75.272 35.083 
3815 H 2 72.7419 77.7672 33.0897 
3769 H 2 72.9617 78.5301 30.109 
3798 O 3 73.285 79.4382 33.2247 
3768 O 3 73.0207 79.4668 30.2969 
3770 H 2 72.8341 79.8917 29.4597 
3799 H 2 73.0926 79.5992 32.301 
3794 H 2 74.5607 79.8177 27.5094 
3800 H 2 74.2409 79.4418 33.2748 
3776 H 2 74.8027 79.9817 30.541 
3813 O 3 72.9548 76.8351 33.0435 
3773 H 2 72.512 76.6103 29.2941 
3771 O 3 72.9101 76.7216 30.1575 
3781 H 2 72.6769 76.8085 34.9983 
3779 H 2 74.4167 75.9872 33.7287 
3751 H 2 74.5809 76.5346 27.7794 
3819 O 3 73.7495 79.7269 35.791 
3782 H 2 72.7696 77.9924 35.9373 
3780 O 3 72.9956 77.0652 35.8637 
3821 H 2 74.6058 79.2999 35.8152 
3778 H 2 75.3822 75.3998 34.736 
3775 H 2 75.8457 80.3846 31.5616 
3774 O 3 75.7489 80.0356 30.6756 
3787 H 2 76.3513 80.2514 28.8092 
3753 O 3 75.9401 79.7569 33.7379 
3755 H 2 76.0537 80.0998 34.6243 
3786 O 3 76.2566 79.9265 27.9139 
3752 H 2 75.1771 75.4411 28.64 
3788 H 2 76.7749 79.1219 27.8945 
3754 H 2 76.4617 78.9544 33.7224 
3805 H 2 75.2126 75.6956 31.681 
3804 O 3 75.4399 75.7295 30.7518 
3750 O 3 75.2542 75.8542 27.78 
3777 O 3 75.2979 75.6221 33.8088 
3806 H 2 76.1763 76.3394 30.707 
3809 H 2 76.551 76.8628 27.8975 
3790 H 2 76.744 76.5509 33.6624 
3789 O 3 77.2896 77.3372 33.677 
3757 H 2 77.7356 77.8055 31.5664 
3791 H 2 77.7789 77.2746 34.4973 
3807 O 3 77.2775 77.486 27.8972 
3756 O 3 77.285 77.7951 30.7219 
3808 H 2 77.4512 77.6524 28.8237 
3758 H 2 76.661 78.5191 30.7739 
61 C 1 80.127 79.023 27.223 
62 C 1 79.831 79.989 28.232 
63 C 1 80.224 78.294 29.985 
64 C 1 80.144 78.932 32.375 
91 C 1 79.143 81.181 27.861 
93 C 1 79.959 79.644 29.613 
94 C 1 79.548 80.567 30.622 
95 C 1 79.718 80.241 32.003 
96 C 1 79.198 81.107 33.012 
97 C 1 80.199 78.569 33.756 
98 C 1 79.988 79.557 34.765 
138 C 1 79.407 80.804 34.393 
646 C 1 80.225 77.65 27.595 
647 C 1 79.37 75.059 28.339 
648 C 1 79.84 75.954 29.348 
649 C 1 79.689 75.618 30.729 
650 C 1 80.047 76.563 31.738 
654 C 1 79.648 75.536 35.88 
676 C 1 80.191 77.284 28.976 
677 C 1 80.234 77.926 31.366 
678 C 1 79.938 76.212 33.118 
679 C 1 80.179 77.193 34.127 
680 C 1 80.113 76.831 35.508 
181 C 1 74.646 83.251 27.754 
183 C 1 74.007 83.177 30.144 
235 C 1 73.294 82.999 27.383 
236 C 1 72.367 82.596 28.392 
237 C 1 72.695 82.763 29.773 
238 C 1 71.824 82.25 30.782 
239 C 1 74.371 83.229 31.525 
240 C 1 73.381 83.026 32.534 
241 C 1 73.737 83.122 33.915 
242 C 1 72.779 82.801 34.924 
292 C 1 71.26 81.778 28.02 
294 C 1 70.824 81.305 30.41 
296 C 1 72.129 82.456 32.162 
297 C 1 71.327 81.842 33.171 
298 C 1 71.605 82.083 34.552 
299 C 1 70.883 81.376 35.561 
186 C 1 76.108 83.128 33.278 
139 C 1 78.785 81.601 35.402 
134 C 1 78.722 81.667 30.251 
132 C 1 77.317 82.693 28.498 
135 C 1 77.949 82.318 31.26 
243 C 1 75.473 83.232 35.668 
92 C 1 78.455 81.921 28.87 
189 C 1 76.812 82.915 36.039 
137 C 1 77.399 82.651 33.649 
131 C 1 76.983 82.847 27.117 
184 C 1 76.726 82.947 30.888 
188 C 1 77.718 82.469 35.03 
133 C 1 76.375 83.06 29.507 
182 C 1 75.014 83.259 29.135 
185 C 1 75.747 83.197 31.897 
136 C 1 78.244 82.099 32.64 
187 C 1 75.106 83.256 34.287 
469 C 1 70.726 74.738 37.473 
524 C 1 71.697 73.763 37.102 
525 C 1 72.552 73.225 38.111 
527 C 1 71.148 74.252 39.863 
528 C 1 70.9 74.524 41.244 
529 C 1 71.625 73.82 42.253 
576 C 1 74.214 72.709 36.358 
577 C 1 73.851 72.772 37.739 
578 C 1 74.855 72.66 38.748 
579 C 1 72.23 73.402 39.491 
580 C 1 73.144 72.971 40.5 
581 C 1 72.802 73.108 41.881 
582 C 1 73.761 72.791 42.89 
583 C 1 71.346 74.06 43.634 
584 C 1 72.151 73.45 44.643 
624 C 1 74.488 72.679 40.129 
628 C 1 73.406 72.885 44.271 
621 C 1 76.576 72.92 36.995 
622 C 1 76.222 72.818 38.376 
623 C 1 77.174 73.156 39.385 
625 C 1 75.498 72.69 41.138 
626 C 1 75.131 72.663 42.519 
627 C 1 76.133 72.797 43.528 
655 C 1 77.818 73.512 36.624 
656 C 1 78.609 74.14 37.633 
657 C 1 78.335 73.895 39.013 
658 C 1 79.045 74.614 40.022 
659 C 1 76.836 73.012 40.766 
660 C 1 77.74 73.463 41.775 
661 C 1 77.421 73.279 43.156 
662 C 1 78.264 73.836 44.165 
663 C 1 75.772 72.726 44.908 
686 C 1 78.803 74.337 41.403 
688 C 1 79.213 74.832 43.793 
355 C 1 69.799 79.267 36.199 
357 C 1 70.499 80.86 37.951 
358 C 1 70.711 81.16 39.332 
359 C 1 70.18 80.301 40.341 
363 C 1 70.767 81.233 44.484 
412 C 1 69.743 76.896 36.836 
413 C 1 69.902 79.62 37.579 
414 C 1 69.678 78.635 38.589 
415 C 1 69.738 78.998 39.969 
416 C 1 69.635 77.993 40.978 
417 C 1 70.354 80.625 41.722 
418 C 1 69.931 79.707 42.731 
419 C 1 70.065 80.05 44.112 
468 C 1 70.191 75.595 36.464 
470 C 1 69.681 77.259 38.217 
471 C 1 69.91 76.275 39.226 
472 C 1 69.805 76.627 40.607 
473 C 1 70.151 75.678 41.616 
474 C 1 69.65 78.36 42.359 
475 C 1 69.67 77.35 43.368 
476 C 1 69.641 77.717 44.749 
526 C 1 70.513 75.038 38.854 
530 C 1 70.004 76.015 42.997 
531 C 1 70.463 75.115 44.006 
3831 O 3 73.9574 80.0268 38.591 
3833 H 2 73.6856 80.1071 37.6767 
3830 H 2 74.0471 80.2469 40.4306 
3828 O 3 74.1201 80.0587 41.3663 
3832 H 2 74.7966 79.568 38.5524 
3856 H 2 73.9822 80.2389 43.2231 
3857 H 2 73.5752 79.4397 44.4428 
3842 H 2 73.6646 78.3554 41.3935 
3847 H 2 72.9234 78.1414 38.8356 
3846 O 3 73.1627 77.2149 38.8119 
3848 H 2 72.5749 76.8317 38.1608 
3841 H 2 73.2335 77.0813 40.6987 
3855 O 3 74.1907 80.1112 44.1486 
3796 H 2 73.6459 76.2185 42.9821 
3840 O 3 73.6042 77.4083 41.5184 
3797 H 2 73.5497 76.4819 44.4698 
3795 O 3 73.9963 75.9324 43.8257 
3851 H 2 71.858 78.0788 43.727 
3818 H 2 74.8492 76.5174 39.2812 
3849 O 3 72.5244 78.0205 44.4116 
3802 H 2 74.4366 76.1917 36.3343 
3829 H 2 75.0396 79.8249 41.493 
3764 H 2 76.0856 77.6376 36.1767 
3827 H 2 76.719 79.308 39.9097 
3825 O 3 76.4765 78.9652 39.0496 
3860 H 2 75.9214 79.6665 44.5517 
3763 H 2 76.6024 78.5482 37.2702 
3871 H 2 76.8606 78.9418 42.7105 
3870 O 3 76.5805 78.9015 41.7961 
3872 H 2 76.4842 77.9664 41.6156 
3826 H 2 76.4214 78.0179 39.1756 
3824 H 2 75.3844 76.3431 42.0479 
3817 H 2 76.0623 76.0174 40.0364 
3816 O 3 75.7844 76.3407 39.1794 
3822 O 3 76.2803 76.0506 41.88 
3823 H 2 76.6518 75.9038 42.7499 
3803 H 2 75.5012 75.9964 37.3929 
99 C 1 80.087 79.202 36.146 
100 C 1 79.757 80.157 37.155 
101 C 1 80.209 78.477 38.907 
102 C 1 80.232 78.11 40.288 
103 C 1 80.107 79.113 41.297 
142 C 1 79.898 79.818 38.535 
143 C 1 79.455 80.726 39.544 
144 C 1 79.636 80.405 40.925 
146 C 1 80.175 78.751 42.678 
147 C 1 79.929 79.731 43.687 
196 C 1 79.305 80.957 43.315 
681 C 1 80.233 77.834 36.517 
682 C 1 79.468 75.215 37.261 
683 C 1 79.907 76.125 38.27 
684 C 1 79.768 75.785 39.651 
685 C 1 80.093 76.741 40.66 
687 C 1 79.42 75.137 42.412 
689 C 1 79.729 75.701 44.802 
702 C 1 80.211 77.467 37.898 
703 C 1 79.996 76.386 42.041 
704 C 1 80.202 77.375 43.05 
705 C 1 80.149 77.011 44.43 
3837 O 3 76.7771 76.455 44.5592 
3839 H 2 76.8838 77.4043 44.62 
3858 O 3 76.7763 79.2402 44.4914 
3838 H 2 75.8429 76.3288 44.3931 
3801 O 3 75.2254 75.6861 36.5304 
3762 O 3 76.3747 78.5353 36.3405 
244 C 1 74.463 83.238 36.677 
245 C 1 74.83 83.258 38.057 
246 C 1 73.826 83.142 39.067 
250 C 1 74.922 83.259 43.209 
300 C 1 73.12 82.939 36.305 
301 C 1 72.208 82.504 37.314 
302 C 1 72.53 82.682 38.695 
303 C 1 71.677 82.14 39.704 
304 C 1 74.189 83.206 40.447 
305 C 1 73.206 82.969 41.456 
306 C 1 73.558 83.077 42.837 
307 C 1 72.612 82.723 43.846 
356 C 1 71.13 81.649 36.942 
360 C 1 71.975 82.356 41.085 
361 C 1 71.194 81.714 42.094 
362 C 1 71.464 81.965 43.475 
140 C 1 79.029 81.325 36.783 
141 C 1 78.316 82.04 37.792 
145 C 1 79.087 81.253 41.934 
190 C 1 77.151 82.773 37.42 
191 C 1 76.197 83.106 38.429 
192 C 1 78.591 81.796 39.173 
193 C 1 77.796 82.42 40.182 
194 C 1 78.099 82.211 41.563 
195 C 1 77.235 82.734 42.572 
197 C 1 78.657 81.732 44.324 
247 C 1 76.552 83.006 39.81 
248 C 1 75.564 83.222 40.819 
249 C 1 75.928 83.165 42.2 
251 C 1 77.56 82.563 43.952 
252 C 1 76.639 82.978 44.962 
308 C 1 75.29 83.247 44.59 
533 C 1 70.841 74.594 46.395 
585 C 1 71.845 73.654 46.024 
586 C 1 72.718 73.146 47.033 
587 C 1 70.617 74.886 47.776 
588 C 1 71.279 74.123 48.785 
589 C 1 71.021 74.386 50.166 
590 C 1 71.771 73.708 51.175 
592 C 1 70.564 74.962 52.928 
629 C 1 74.396 72.687 45.28 
630 C 1 74.032 72.737 46.661 
632 C 1 72.389 73.311 48.414 
633 C 1 73.318 72.912 49.423 
634 C 1 72.972 73.037 50.803 
635 C 1 73.941 72.754 51.813 
636 C 1 71.483 73.938 52.556 
637 C 1 72.309 73.356 53.565 
667 C 1 74.672 72.666 49.051 
671 C 1 73.583 72.835 53.193 
631 C 1 75.039 72.661 47.67 
664 C 1 76.75 72.98 45.918 
665 C 1 76.4 72.866 47.298 
666 C 1 77.34 73.237 48.307 
668 C 1 75.681 72.712 50.06 
669 C 1 75.315 72.673 51.441 
670 C 1 76.311 72.842 52.45 
690 C 1 77.97 73.615 45.546 
691 C 1 78.739 74.27 46.555 
692 C 1 78.474 74.015 47.936 
693 C 1 79.159 74.759 48.945 
694 C 1 77.006 73.081 49.688 
695 C 1 77.894 73.563 50.697 
696 C 1 77.582 73.368 52.078 
697 C 1 78.405 73.954 53.087 
698 C 1 75.953 72.758 53.831 
710 C 1 78.926 74.473 50.325 
712 C 1 79.319 74.983 52.715 
3863 H 2 73.2765 77.1109 53.1918 
3850 H 2 72.0263 77.9391 45.225 
420 C 1 69.756 79.088 45.121 
422 C 1 70.401 80.704 46.873 
423 C 1 70.602 81.012 48.254 
424 C 1 70.102 80.134 49.263 
428 C 1 70.656 81.087 53.406 
477 C 1 69.783 76.717 45.758 
478 C 1 69.847 79.444 46.502 
479 C 1 69.658 78.452 47.511 
480 C 1 69.705 78.817 48.892 
481 C 1 69.637 77.809 49.901 
482 C 1 70.264 80.464 50.644 
483 C 1 69.874 79.532 51.653 
484 C 1 69.995 79.88 53.034 
485 C 1 69.72 78.907 54.043 
532 C 1 70.276 75.432 45.386 
534 C 1 69.709 77.077 47.139 
535 C 1 69.971 76.101 48.148 
536 C 1 69.854 76.45 49.529 
537 C 1 70.233 75.513 50.538 
538 C 1 69.639 78.177 51.281 
539 C 1 69.694 77.168 52.291 
540 C 1 69.652 77.533 53.671 
591 C 1 70.075 75.845 51.919 
3844 H 2 73.4561 79.4433 47.0828 
3877 H 2 73.5118 79.2465 49.8861 
3843 O 3 74.1005 80.151 47.0715 
3845 H 2 74.0931 80.468 46.1683 
3876 O 3 73.9735 80.0818 49.8125 
3892 H 2 74.0593 80.7354 51.841 
3878 H 2 74.0947 80.207 48.8713 
3891 O 3 74.0799 80.3026 52.6945 
3879 O 3 72.7381 77.7602 50.3221 
3880 H 2 72.6585 77.7484 51.2759 
3869 H 2 72.2002 77.6247 48.3792 
3867 O 3 72.6136 77.7972 47.5333 
3893 H 2 73.6298 79.4699 52.5522 
3881 H 2 73.2814 76.9992 50.1172 
3868 H 2 73.2989 77.1328 47.4611 
3890 H 2 74.152 75.505 51.8962 
3888 O 3 74.295 75.8352 52.7832 
3873 O 3 74.3277 75.7564 46.6311 
3883 H 2 74.6056 75.0856 48.8205 
3882 O 3 74.3847 75.6131 49.5881 
3875 H 2 74.3674 75.1285 45.9097 
3861 O 3 72.7498 77.9099 53.2107 
3884 H 2 75.2259 75.9466 49.9002 
3889 H 2 75.2283 75.6956 52.9436 
3874 H 2 75.2409 75.8861 46.8869 
3836 H 2 75.6788 79.3496 47.3611 
3905 H 2 75.7604 79.8763 53.2084 
3853 H 2 75.7604 79.884 50.2661 
3898 H 2 76.6367 77.5935 53.0497 
3835 H 2 76.9696 79.5073 48.1363 
3854 H 2 76.7334 79.793 51.4224 
3852 O 3 76.6508 79.6103 50.4864 
3834 O 3 76.5722 79.011 47.4208 
3859 H 2 77.195 79.4221 45.3328 
3812 H 2 76.9594 77.2788 47.3929 
3865 H 2 77.2744 76.6413 49.1729 
3811 H 2 77.0037 76.178 46.3546 
3864 O 3 76.9721 76.806 50.0661 
3810 O 3 76.7564 76.3525 47.2627 
3899 H 2 77.1467 76.6048 52.0229 
3866 H 2 76.9039 77.759 50.1245 
104 C 1 80.234 78.018 45.44 
148 C 1 80.04 79.38 45.068 
149 C 1 79.678 80.323 46.077 
150 C 1 80.188 78.66 47.829 
151 C 1 80.224 78.294 49.21 
152 C 1 80.064 79.292 50.219 
200 C 1 79.831 79.989 47.458 
201 C 1 79.356 80.881 48.467 
202 C 1 79.548 80.567 49.848 
204 C 1 80.144 78.932 51.6 
205 C 1 79.865 79.903 52.609 
206 C 1 79.988 79.557 53.99 
259 C 1 79.198 81.107 52.237 
706 C 1 79.561 75.374 46.183 
707 C 1 79.968 76.299 47.192 
708 C 1 79.84 75.954 48.573 
709 C 1 80.132 76.921 49.582 
711 C 1 79.515 75.294 51.335 
713 C 1 79.805 75.869 53.724 
717 C 1 80.225 77.65 46.82 
718 C 1 80.047 76.563 50.963 
719 C 1 80.219 77.559 51.972 
720 C 1 80.179 77.193 53.353 
3897 O 3 76.78 76.6581 52.9055 
3903 O 3 76.6733 79.6171 53.333 
309 C 1 74.28 83.218 45.599 
310 C 1 74.646 83.251 46.98 
311 C 1 73.647 83.1 47.989 
315 C 1 74.738 83.255 52.131 
364 C 1 72.948 82.873 45.227 
365 C 1 72.052 82.406 46.236 
366 C 1 72.367 82.596 47.617 
367 C 1 71.534 82.024 48.626 
368 C 1 74.007 83.177 49.37 
369 C 1 73.034 82.906 50.379 
370 C 1 73.381 83.026 51.759 
371 C 1 72.448 82.64 52.768 
421 C 1 71.004 81.514 45.864 
425 C 1 71.824 82.25 50.007 
426 C 1 71.066 81.582 51.016 
427 C 1 71.327 81.842 52.397 
372 C 1 75.106 83.256 53.512 
312 C 1 76.375 83.06 48.732 
260 C 1 78.524 81.859 53.246 
254 C 1 76.018 83.147 47.351 
257 C 1 77.949 82.318 50.485 
255 C 1 78.455 81.921 48.095 
317 C 1 76.464 83.034 53.884 
199 C 1 78.172 82.155 46.714 
314 C 1 75.747 83.197 51.122 
258 C 1 77.067 82.811 51.494 
256 C 1 77.64 82.517 49.104 
198 C 1 78.91 81.465 45.705 
313 C 1 75.381 83.24 49.741 
316 C 1 77.399 82.651 52.875 
203 C 1 78.97 81.395 50.857 
253 C 1 76.983 82.847 46.342 
594 C 1 70.96 74.454 55.318 
638 C 1 71.996 73.549 54.946 
639 C 1 72.886 73.071 55.955 
640 C 1 70.726 74.738 56.699 
672 C 1 74.58 72.672 54.202 
673 C 1 74.214 72.709 55.583 
675 C 1 72.552 73.225 57.336 
989 C 1 71.414 73.998 57.708 
990 C 1 71.148 74.252 59.088 
991 C 1 71.92 73.601 60.097 
993 C 1 70.671 74.812 61.85 
1045 C 1 73.494 72.859 58.345 
1046 C 1 73.144 72.971 59.726 
1047 C 1 74.123 72.722 60.735 
1048 C 1 71.625 73.82 61.478 
1049 C 1 72.471 73.267 62.487 
1101 C 1 74.855 72.66 57.973 
1105 C 1 73.761 72.791 62.116 