ITEM: TIMESTEP
80000
ITEM: NUMBER OF ATOMS
5084
ITEM: BOX BOUNDS pp pp pp
0.0000000000000000e+00 1.5000000000000000e+02
0.0000000000000000e+00 1.5000000000000000e+02
0.0000000000000000e+00 2.8837799999999999e+02
ITEM: ATOMS id type element x y z xs ys zs xu yu zu xsu ysu zsu ix iy iz vx vy vz c_voro1[1] c_voro1[2] 
265 1 C 71.414 73.998 0.032 0.476093 0.49332 0.000110965 71.414 73.998 0.032 0.476093 0.49332 0.000110965 0 0 0 0 0 0 3586.31 19 
266 1 C 71.148 74.252 1.413 0.47432 0.495013 0.00489982 71.148 74.252 1.413 0.47432 0.495013 0.00489982 0 0 0 0 0 0 3567.96 18 
267 1 C 71.92 73.601 2.422 0.479467 0.490673 0.0083987 71.92 73.601 2.422 0.479467 0.490673 0.0083987 0 0 0 0 0 0 2924.53 17 
269 1 C 70.671 74.812 4.174 0.47114 0.498747 0.0144741 70.671 74.812 4.174 0.47114 0.498747 0.0144741 0 0 0 0 0 0 3010.34 19 
271 1 C 71.084 74.318 6.564 0.473893 0.495453 0.0227618 71.084 74.318 6.564 0.473893 0.495453 0.0227618 0 0 0 0 0 0 3670.6 19 
321 1 C 73.494 72.859 0.669 0.48996 0.485727 0.00231987 73.494 72.859 0.669 0.48996 0.485727 0.00231987 0 0 0 0 0 0 2182.36 17 
322 1 C 73.144 72.971 2.05 0.487627 0.486473 0.00710873 73.144 72.971 2.05 0.487627 0.486473 0.00710873 0 0 0 0 0 0 2335.09 17 
323 1 C 74.123 72.722 3.059 0.494153 0.484813 0.0106076 74.123 72.722 3.059 0.494153 0.484813 0.0106076 0 0 0 0 0 0 2075.15 17 
324 1 C 71.625 73.82 3.803 0.4775 0.492133 0.0131876 71.625 73.82 3.803 0.4775 0.492133 0.0131876 0 0 0 0 0 0 3464.99 20 
325 1 C 72.471 73.267 4.812 0.48314 0.488447 0.0166864 72.471 73.267 4.812 0.48314 0.488447 0.0166864 0 0 0 0 0 0 2578.38 17 
326 1 C 72.151 73.45 6.192 0.481007 0.489667 0.0214718 72.151 73.45 6.192 0.481007 0.489667 0.0214718 0 0 0 0 0 0 2848.44 16 
327 1 C 73.057 73.003 7.202 0.487047 0.486687 0.0249742 73.057 73.003 7.202 0.487047 0.486687 0.0249742 0 0 0 0 0 0 2336.02 16 
328 1 C 70.841 74.594 7.945 0.472273 0.497293 0.0275506 70.841 74.594 7.945 0.472273 0.497293 0.0275506 0 0 0 0 0 0 3108.75 18 
329 1 C 71.554 73.878 8.954 0.477027 0.49252 0.0310495 71.554 73.878 8.954 0.477027 0.49252 0.0310495 0 0 0 0 0 0 3397.49 18 
377 1 C 74.855 72.66 0.297 0.499033 0.4844 0.0010299 74.855 72.66 0.297 0.499033 0.4844 0.0010299 0 0 0 0 0 0 2066.53 15 
381 1 C 73.761 72.791 4.44 0.49174 0.485273 0.0153965 73.761 72.791 4.44 0.49174 0.485273 0.0153965 0 0 0 0 0 0 2161.67 17 
382 1 C 74.763 72.662 5.449 0.49842 0.484413 0.0188953 74.763 72.662 5.449 0.49842 0.484413 0.0188953 0 0 0 0 0 0 2064.05 16 
383 1 C 74.396 72.687 6.83 0.495973 0.48458 0.0236842 74.396 72.687 6.83 0.495973 0.48458 0.0236842 0 0 0 0 0 0 2062.38 17 
385 1 C 72.718 73.146 8.582 0.484787 0.48764 0.0297596 72.718 73.146 8.582 0.484787 0.48764 0.0297596 0 0 0 0 0 0 2476.57 16 
378 1 C 75.862 72.742 1.306 0.505747 0.484947 0.00452878 75.862 72.742 1.306 0.505747 0.484947 0.00452878 0 0 0 0 0 0 2091.84 17 
379 1 C 75.498 72.69 2.687 0.50332 0.4846 0.00931763 75.498 72.69 2.687 0.50332 0.4846 0.00931763 0 0 0 0 0 0 2047.29 17 
380 1 C 76.488 72.892 3.696 0.50992 0.485947 0.0128165 76.488 72.892 3.696 0.50992 0.485947 0.0128165 0 0 0 0 0 0 2283.22 19 
384 1 C 75.407 72.681 7.839 0.502713 0.48454 0.0271831 75.407 72.681 7.839 0.502713 0.48454 0.0271831 0 0 0 0 0 0 2055.51 17 
433 1 C 79.267 74.907 0.191 0.528447 0.49938 0.000662325 79.267 74.907 0.191 0.528447 0.49938 0.000662325 0 0 0 0 0 0 2805.22 18 
434 1 C 77.174 73.156 0.935 0.514493 0.487707 0.00324227 77.174 73.156 0.935 0.514493 0.487707 0.00324227 0 0 0 0 0 0 2446.06 16 
435 1 C 78.045 73.669 1.944 0.5203 0.491127 0.00674115 78.045 73.669 1.944 0.5203 0.491127 0.00674115 0 0 0 0 0 0 3139.55 17 
436 1 C 77.74 73.463 3.325 0.518267 0.489753 0.01153 77.74 73.463 3.325 0.518267 0.489753 0.01153 0 0 0 0 0 0 2804.09 17 
437 1 C 78.542 74.077 4.334 0.523613 0.493847 0.0150289 78.542 74.077 4.334 0.523613 0.493847 0.0150289 0 0 0 0 0 0 3719.58 18 
438 1 C 76.133 72.797 5.077 0.507553 0.485313 0.0176054 76.133 72.797 5.077 0.507553 0.485313 0.0176054 0 0 0 0 0 0 2125.29 17 
439 1 C 77.091 73.118 6.086 0.51394 0.487453 0.0211042 77.091 73.118 6.086 0.51394 0.487453 0.0211042 0 0 0 0 0 0 2478.14 19 
440 1 C 76.75 72.98 7.467 0.511667 0.486533 0.0258931 76.75 72.98 7.467 0.511667 0.486533 0.0258931 0 0 0 0 0 0 2301.56 18 
441 1 C 77.662 73.415 8.476 0.517747 0.489433 0.029392 77.662 73.415 8.476 0.517747 0.489433 0.029392 0 0 0 0 0 0 2850.38 17 
490 1 C 79.045 74.614 1.572 0.526967 0.497427 0.00545118 79.045 74.614 1.572 0.526967 0.497427 0.00545118 0 0 0 0 0 0 3266.61 17 
494 1 C 78.264 73.836 5.714 0.52176 0.49224 0.0198143 78.264 73.836 5.714 0.52176 0.49224 0.0198143 0 0 0 0 0 0 3305.15 17 
495 1 C 78.986 74.543 6.724 0.526573 0.496953 0.0233166 78.986 74.543 6.724 0.526573 0.496953 0.0233166 0 0 0 0 0 0 3204.4 16 
496 1 C 78.739 74.27 8.104 0.524927 0.495133 0.028102 78.739 74.27 8.104 0.524927 0.495133 0.028102 0 0 0 0 0 0 3683.21 18 
105 1 C 70.029 79.965 0.51 0.46686 0.5331 0.00176851 70.029 79.965 0.51 0.46686 0.5331 0.00176851 0 0 0 0 0 0 2191.86 20 
109 1 C 70.55 80.936 4.652 0.470333 0.539573 0.0161316 70.55 80.936 4.652 0.470333 0.539573 0.0161316 0 0 0 0 0 0 2712.8 20 
154 1 C 69.678 78.635 0.138 0.46452 0.524233 0.000478539 69.678 78.635 0.138 0.46452 0.524233 0.000478539 0 0 0 0 0 0 1954.95 17 
155 1 C 69.646 77.625 1.147 0.464307 0.5175 0.00397742 69.646 77.625 1.147 0.464307 0.5175 0.00397742 0 0 0 0 0 0 1895.55 17 
156 1 C 70.18 80.301 1.891 0.467867 0.53534 0.00655737 70.18 80.301 1.891 0.467867 0.53534 0.00655737 0 0 0 0 0 0 2417.86 18 
157 1 C 69.822 79.356 2.9 0.46548 0.52904 0.0100562 69.822 79.356 2.9 0.46548 0.52904 0.0100562 0 0 0 0 0 0 2036.72 15 
158 1 C 69.931 79.707 4.281 0.466207 0.53138 0.0148451 69.931 79.707 4.281 0.466207 0.53138 0.0148451 0 0 0 0 0 0 2164.82 18 
159 1 C 69.691 78.726 5.29 0.464607 0.52484 0.018344 69.691 78.726 5.29 0.464607 0.52484 0.018344 0 0 0 0 0 0 1905.91 16 
160 1 C 70.767 81.233 6.033 0.47178 0.541553 0.0209205 70.767 81.233 6.033 0.47178 0.541553 0.0209205 0 0 0 0 0 0 3154 22 
161 1 C 70.221 80.383 7.042 0.46814 0.535887 0.0244193 70.221 80.383 7.042 0.46814 0.535887 0.0244193 0 0 0 0 0 0 2409.17 18 
162 1 C 70.401 80.704 8.423 0.46934 0.538027 0.0292082 70.401 80.704 8.423 0.46934 0.538027 0.0292082 0 0 0 0 0 0 2644.25 18 
209 1 C 69.91 76.275 0.775 0.466067 0.5085 0.00268744 69.91 76.275 0.775 0.466067 0.5085 0.00268744 0 0 0 0 0 0 2089.25 17 
210 1 C 70.321 75.352 1.784 0.468807 0.502347 0.00618632 70.321 75.352 1.784 0.468807 0.502347 0.00618632 0 0 0 0 0 0 2543.12 18 
211 1 C 69.635 77.993 2.528 0.464233 0.519953 0.00876627 69.635 77.993 2.528 0.464233 0.519953 0.00876627 0 0 0 0 0 0 1917.84 16 
212 1 C 69.725 76.986 3.537 0.464833 0.51324 0.0122652 69.725 76.986 3.537 0.464833 0.51324 0.0122652 0 0 0 0 0 0 1990.47 16 
213 1 C 69.67 77.35 4.918 0.464467 0.515667 0.017054 69.67 77.35 4.918 0.464467 0.515667 0.017054 0 0 0 0 0 0 1926.16 17 
214 1 C 69.881 76.362 5.927 0.465873 0.50908 0.0205529 69.881 76.362 5.927 0.465873 0.50908 0.0205529 0 0 0 0 0 0 2140.57 15 
215 1 C 69.756 79.088 6.67 0.46504 0.527253 0.0231294 69.756 79.088 6.67 0.46504 0.527253 0.0231294 0 0 0 0 0 0 2040.98 16 
216 1 C 69.636 78.085 7.679 0.46424 0.520567 0.0266282 69.636 78.085 7.679 0.46424 0.520567 0.0266282 0 0 0 0 0 0 1926.77 17 
268 1 C 70.151 75.678 3.165 0.467673 0.50452 0.0109752 70.151 75.678 3.165 0.467673 0.50452 0.0109752 0 0 0 0 0 0 2320.32 19 
270 1 C 70.463 75.115 5.555 0.469753 0.500767 0.0192629 70.463 75.115 5.555 0.469753 0.500767 0.0192629 0 0 0 0 0 0 2631 18 
272 1 C 69.783 76.717 7.308 0.46522 0.511447 0.0253417 69.783 76.717 7.308 0.46522 0.511447 0.0253417 0 0 0 0 0 0 1968.83 18 
273 1 C 70.112 75.761 8.317 0.467413 0.505073 0.0288406 70.112 75.761 8.317 0.467413 0.505073 0.0288406 0 0 0 0 0 0 2345.4 18 
3661 2 C 73.981 80.7563 7.30097 0.493207 0.538375 0.0253174 73.981 80.7563 7.30097 0.493207 0.538375 0.0253174 0 0 0 0.0336893 0.0160824 -0.00196526 10.2285 20 
3660 3 C 74.2846 80.129 7.95718 0.495231 0.534193 0.0275929 74.2846 80.129 7.95718 0.495231 0.534193 0.0275929 0 0 0 -0.000134226 -0.00061844 -0.00225474 4.80089 8 
3646 2 C 73.7855 79.1138 4.90345 0.491903 0.527425 0.0170036 73.7855 79.1138 4.90345 0.491903 0.527425 0.0170036 0 0 0 0.0104571 -5.73003e-05 -0.00699245 11.1701 24 
3623 2 C 73.2066 78.6736 1.97816 0.488044 0.52449 0.00685962 73.2066 78.6736 1.97816 0.488044 0.52449 0.00685962 0 0 0 0.00584439 -0.00582753 0.013465 9.13715 16 
3621 3 C 72.6861 77.8702 1.97942 0.484574 0.519135 0.00686399 72.6861 77.8702 1.97942 0.484574 0.519135 0.00686399 0 0 0 0.000747322 -0.00254397 -0.00292371 4.81498 11 
3622 2 C 72.2615 77.8608 2.83721 0.481743 0.519072 0.0098385 72.2615 77.8608 2.83721 0.481743 0.519072 0.0098385 0 0 0 0.00720572 -0.0215667 4.96864e-05 10.1463 22 
3648 3 C 72.6038 77.7748 4.92938 0.484025 0.518499 0.0170935 72.6038 77.7748 4.92938 0.484025 0.518499 0.0170935 0 0 0 -0.00516357 -0.00570063 -0.00260629 6.00099 13 
3649 2 C 72.2808 77.6134 5.81586 0.481872 0.517423 0.0201675 72.2808 77.6134 5.81586 0.481872 0.517423 0.0201675 0 0 0 -0.000169653 -0.00598093 -0.000839173 10.8708 21 
3663 3 C 72.677 78.1362 7.94021 0.484513 0.520908 0.027534 72.677 78.1362 7.94021 0.484513 0.520908 0.027534 0 0 0 6.74719e-05 -0.00668319 -0.00220235 5.77523 11 
3650 2 C 73.2074 77.0518 4.75856 0.488049 0.513679 0.0165011 73.2074 77.0518 4.75856 0.488049 0.513679 0.0165011 0 0 0 0.0205619 0.0135269 0.00693039 8.77566 15 
3664 2 C 73.1445 78.9618 8.06669 0.48763 0.526412 0.0279726 73.1445 78.9618 8.06669 0.48763 0.526412 0.0279726 0 0 0 -0.00450304 -0.00414624 -0.00179179 10.484 20 
3626 2 C 73.7238 76.6037 2.08749 0.491492 0.510691 0.00723873 73.7238 76.6037 2.08749 0.491492 0.510691 0.00723873 0 0 0 0.0138159 0.0207784 0.0191347 9.75992 23 
3652 2 C 73.6533 76.7358 7.87051 0.491022 0.511572 0.0272923 73.6533 76.7358 7.87051 0.491022 0.511572 0.0272923 0 0 0 -0.0110343 -0.0093419 0.0135831 10.0477 24 
3638 2 C 74.061 75.2941 5.71765 0.49374 0.50196 0.0198269 74.061 75.2941 5.71765 0.49374 0.50196 0.0198269 0 0 0 -0.000973646 0.0169205 -0.00180006 9.84262 21 
3625 2 C 74.1941 75.6729 3.18493 0.494627 0.504486 0.0110443 74.1941 75.6729 3.18493 0.494627 0.504486 0.0110443 0 0 0 -0.0168772 -0.0257084 -0.00714017 9.4718 17 
3651 3 C 74.0786 75.8824 7.78656 0.493857 0.505883 0.0270012 74.0786 75.8824 7.78656 0.493857 0.505883 0.0270012 0 0 0 -4.21977e-07 -0.00325764 0.00765854 6.86632 14 
3624 3 C 74.3882 75.9444 2.28781 0.495922 0.506296 0.00793337 74.3882 75.9444 2.28781 0.495922 0.506296 0.00793337 0 0 0 -0.00733681 -0.0060265 0.000856602 6.27414 11 
3636 3 C 74.3527 75.6456 4.87646 0.495685 0.504304 0.01691 74.3527 75.6456 4.87646 0.495685 0.504304 0.01691 0 0 0 0.00298915 0.00979128 -0.00340302 5.06327 11 
3653 2 C 75.0151 76.0804 7.78188 0.500101 0.507202 0.026985 75.0151 76.0804 7.78188 0.500101 0.507202 0.026985 0 0 0 -0.00326919 0.0115276 -0.0217419 9.85773 18 
3637 2 C 75.1504 76.1326 5.08345 0.501002 0.50755 0.0176277 75.1504 76.1326 5.08345 0.501002 0.50755 0.0176277 0 0 0 0.0107441 -0.00173276 -0.00627652 10.2881 19 
52 1 C 79.029 81.325 17.558 0.52686 0.542167 0.0608854 79.029 81.325 17.558 0.52686 0.542167 0.0608854 0 0 0 0 0 0 3301.46 18 
3632 2 C 73.8447 80.6051 1.34695 0.492298 0.537367 0.00467077 73.8447 80.6051 1.34695 0.492298 0.537367 0.00467077 0 0 0 -0.00962801 -0.0102429 -0.00347454 10.7429 22 
3647 2 C 74.0857 80.4242 4.20733 0.493905 0.536161 0.0145896 74.0857 80.4242 4.20733 0.493905 0.536161 0.0145896 0 0 0 0.00434663 0.00653515 0.00272629 10.3366 21 
3645 3 C 74.1737 79.9766 5.04883 0.494491 0.533177 0.0175077 74.1737 79.9766 5.04883 0.494491 0.533177 0.0175077 0 0 0 -0.00484915 0.00520598 0.00298437 6.46718 13 
3630 3 C 74.1035 80.2278 2.18773 0.494023 0.534852 0.00758632 74.1035 80.2278 2.18773 0.494023 0.534852 0.00758632 0 0 0 -0.00540646 0.00521604 0.00218424 6.00884 11 
3631 2 C 74.8982 79.7309 1.99339 0.499322 0.53154 0.0069124 74.8982 79.7309 1.99339 0.499322 0.53154 0.0069124 0 0 0 -2.181e-05 0.0110186 0.00953372 9.87917 21 
3643 2 C 75.9365 79.7103 4.96735 0.506243 0.531402 0.0172251 75.9365 79.7103 4.96735 0.506243 0.531402 0.0172251 0 0 0 0.0004079 0.000530761 0.00745208 9.71505 18 
3667 2 C 76.1068 79.5995 7.63349 0.507379 0.530663 0.0264704 76.1068 79.5995 7.63349 0.507379 0.530663 0.0264704 0 0 0 0.00457081 0.0202006 0.008146 10.5889 21 
3642 3 C 76.8381 79.423 4.8231 0.512254 0.529487 0.0167249 76.8381 79.423 4.8231 0.512254 0.529487 0.0167249 0 0 0 -0.00154797 -9.00482e-05 -0.00357783 5.40068 11 
3644 2 C 77.0451 79.7182 3.93639 0.513634 0.531455 0.0136501 77.0451 79.7182 3.93639 0.513634 0.531455 0.0136501 0 0 0 -0.0096275 0.00643169 -0.00329797 10.1552 20 
3668 2 C 77.4114 79.672 6.86894 0.516076 0.531146 0.0238192 77.4114 79.672 6.86894 0.516076 0.531146 0.0238192 0 0 0 0.00343705 0.0135279 0.00559097 9.05798 18 
3666 3 C 77.0429 79.4168 7.71468 0.513619 0.529445 0.026752 77.0429 79.4168 7.71468 0.513619 0.529445 0.026752 0 0 0 0.00177208 0.00307232 0.00171903 5.4161 12 
5076 3 C 76.6084 79.4161 1.85171 0.510722 0.52944 0.00642112 76.6084 79.4161 290.23 0.510722 0.52944 1.00642 0 0 1 0.00042214 -0.000333159 0.00512489 5.79171 10 
5078 2 C 76.8839 79.5051 0.93935 0.512559 0.530034 0.00325736 76.8839 79.5051 289.317 0.512559 0.530034 1.00326 0 0 1 -0.00320614 9.88977e-05 0.00407105 10.7166 20 
5077 2 C 76.8861 78.5347 2.1013 0.512574 0.523565 0.00728663 76.8861 78.5347 290.479 0.512574 0.523565 1.00729 0 0 1 -0.00980237 -0.00505981 -0.000229815 10.0637 20 
3655 2 C 76.8496 77.7084 8.12975 0.51233 0.518056 0.0281913 76.8496 77.7084 8.12975 0.51233 0.518056 0.0281913 0 0 0 -0.0270041 0.00224907 -0.0105346 9.98277 22 
3641 2 C 76.8568 77.7556 5.28734 0.512379 0.51837 0.0183347 76.8568 77.7556 5.28734 0.512379 0.51837 0.0183347 0 0 0 0.0228072 -0.00269643 0.00226643 9.66898 20 
3639 3 C 76.9094 76.7998 5.28131 0.512729 0.511999 0.0183138 76.9094 76.7998 5.28131 0.512729 0.511999 0.0183138 0 0 0 -0.00569575 -0.00420011 -0.00462716 5.58658 11 
3654 3 C 76.7256 76.7597 8.09922 0.511504 0.511731 0.0280854 76.7256 76.7597 8.09922 0.511504 0.511731 0.0280854 0 0 0 -0.00350759 -0.00113917 -0.000807942 5.78728 12 
3640 2 C 76.9831 76.5577 6.20444 0.513221 0.510385 0.0215149 76.9831 76.5577 6.20444 0.513221 0.510385 0.0215149 0 0 0 -0.00906541 -0.0128811 -0.00662079 9.91804 17 
3628 2 C 77.2938 76.6755 3.44996 0.515292 0.51117 0.0119633 77.2938 76.6755 3.44996 0.515292 0.51117 0.0119633 0 0 0 -0.00607058 0.00536832 0.00201039 9.66188 18 
3627 3 C 77.1226 76.8608 2.52662 0.51415 0.512406 0.00876149 77.1226 76.8608 2.52662 0.51415 0.512406 0.00876149 0 0 0 0.000203766 -0.00190765 -0.000606092 6.99539 13 
3629 2 C 76.3395 76.3503 2.32059 0.50893 0.509002 0.00804703 76.3395 76.3503 2.32059 0.50893 0.509002 0.00804703 0 0 0 0.00325473 -0.00576647 -0.00266837 11.3611 21 
1 1 C 80.209 78.477 0.457 0.534727 0.52318 0.00158473 80.209 78.477 0.457 0.534727 0.52318 0.00158473 0 0 0 0 0 0 1930.24 17 
2 1 C 80.015 79.469 1.466 0.533433 0.529793 0.00508361 80.015 79.469 1.466 0.533433 0.529793 0.00508361 0 0 0 0 0 0 2117.62 17 
3 1 C 80.217 78.386 5.608 0.53478 0.522573 0.0194467 80.217 78.386 5.608 0.53478 0.522573 0.0194467 0 0 0 0 0 0 1921.65 19 
4 1 C 79.455 80.726 1.094 0.5297 0.538173 0.00379363 79.455 80.726 1.094 0.5297 0.538173 0.00379363 0 0 0 0 0 0 2584.51 16 
6 1 C 80.107 79.113 2.847 0.534047 0.52742 0.00987246 80.107 79.113 2.847 0.534047 0.52742 0.00987246 0 0 0 0 0 0 1980.88 17 
7 1 C 79.795 80.073 3.856 0.531967 0.53382 0.0133713 79.795 80.073 3.856 0.531967 0.53382 0.0133713 0 0 0 0 0 0 2325.44 15 
8 1 C 79.929 79.731 5.236 0.53286 0.53154 0.0181567 79.929 79.731 5.236 0.53286 0.53154 0.0181567 0 0 0 0 0 0 2095.45 18 
9 1 C 79.503 80.647 6.246 0.53002 0.537647 0.0216591 79.503 80.647 6.246 0.53002 0.537647 0.0216591 0 0 0 0 0 0 2656 16 
10 1 C 80.234 78.018 6.989 0.534893 0.52012 0.0242356 80.234 78.018 6.989 0.534893 0.52012 0.0242356 0 0 0 0 0 0 1912.77 19 
11 1 C 80.127 79.023 7.998 0.53418 0.52682 0.0277344 80.127 79.023 7.998 0.53418 0.52682 0.0277344 0 0 0 0 0 0 2035.22 18 
22 1 C 79.678 80.323 7.626 0.531187 0.535487 0.0264445 79.678 80.323 7.626 0.531187 0.535487 0.0264445 0 0 0 0 0 0 2344.17 17 
23 1 C 79.143 81.181 8.635 0.52762 0.541207 0.0299433 79.143 81.181 8.635 0.52762 0.541207 0.0299433 0 0 0 0 0 0 3115.71 17 
489 1 C 80.165 77.102 0.828 0.534433 0.514013 0.00287123 80.165 77.102 0.828 0.534433 0.514013 0.00287123 0 0 0 0 0 0 1963.15 18 
491 1 C 79.605 75.455 2.581 0.5307 0.503033 0.00895006 79.605 75.455 2.581 0.5307 0.503033 0.00895006 0 0 0 0 0 0 2413.42 16 
492 1 C 79.42 75.137 3.962 0.529467 0.500913 0.0137389 79.42 75.137 3.962 0.529467 0.500913 0.0137389 0 0 0 0 0 0 2717.43 16 
493 1 C 79.874 76.039 4.971 0.532493 0.506927 0.0172378 79.874 76.039 4.971 0.532493 0.506927 0.0172378 0 0 0 0 0 0 2161.01 17 
544 1 C 80.093 76.741 2.209 0.533953 0.511607 0.00766009 80.093 76.741 2.209 0.533953 0.511607 0.00766009 0 0 0 0 0 0 2054.36 17 
545 1 C 80.23 77.742 3.218 0.534867 0.51828 0.011159 80.23 77.742 3.218 0.534867 0.51828 0.011159 0 0 0 0 0 0 1915.66 18 
546 1 C 80.202 77.375 4.599 0.53468 0.515833 0.0159478 80.202 77.375 4.599 0.53468 0.515833 0.0159478 0 0 0 0 0 0 1930.85 19 
547 1 C 79.729 75.701 6.352 0.531527 0.504673 0.0220266 79.729 75.701 6.352 0.531527 0.504673 0.0220266 0 0 0 0 0 0 2373.14 16 
548 1 C 80.071 76.652 7.361 0.533807 0.511013 0.0255255 80.071 76.652 7.361 0.533807 0.511013 0.0255255 0 0 0 0 0 0 2035.33 17 
549 1 C 79.968 76.299 8.742 0.53312 0.50866 0.0303144 79.968 76.299 8.742 0.53312 0.50866 0.0303144 0 0 0 0 0 0 2157.16 18 
3656 2 C 76.6751 76.4946 9.01759 0.511167 0.509964 0.03127 76.6751 76.4946 9.01759 0.511167 0.509964 0.03127 0 0 0 -0.000337777 0.00751637 0.00185446 9.3843 20 
50 1 C 77.718 82.469 15.805 0.51812 0.549793 0.0548065 77.718 82.469 15.805 0.51812 0.549793 0.0548065 0 0 0 0 0 0 2398.54 18 
38 1 C 74.554 83.245 3.378 0.497027 0.554967 0.0117138 74.554 83.245 3.378 0.497027 0.554967 0.0117138 0 0 0 0 0 0 1777.27 17 
65 1 C 73.826 83.142 0.616 0.492173 0.55428 0.00213609 73.826 83.142 0.616 0.492173 0.55428 0.00213609 0 0 0 0 0 0 1856.98 16 
66 1 C 72.863 82.837 1.625 0.485753 0.552247 0.00563497 72.863 82.837 1.625 0.485753 0.552247 0.00563497 0 0 0 0 0 0 2115.12 15 
67 1 C 73.206 82.969 3.006 0.48804 0.553127 0.0104238 73.206 82.969 3.006 0.48804 0.553127 0.0104238 0 0 0 0 0 0 1970.68 17 
68 1 C 72.287 82.55 4.015 0.481913 0.550333 0.0139227 72.287 82.55 4.015 0.481913 0.550333 0.0139227 0 0 0 0 0 0 2398.26 16 
69 1 C 74.922 83.259 4.759 0.49948 0.55506 0.0165026 74.922 83.259 4.759 0.49948 0.55506 0.0165026 0 0 0 0 0 0 1783.81 17 
70 1 C 73.916 83.16 5.768 0.492773 0.5544 0.0200015 73.916 83.16 5.768 0.492773 0.5544 0.0200015 0 0 0 0 0 0 1861.62 17 
71 1 C 74.28 83.218 7.148 0.4952 0.554787 0.0247869 74.28 83.218 7.148 0.4952 0.554787 0.0247869 0 0 0 0 0 0 1783.24 16 
72 1 C 73.294 82.999 8.157 0.488627 0.553327 0.0282858 73.294 82.999 8.157 0.488627 0.553327 0.0282858 0 0 0 0 0 0 2007.76 16 
106 1 C 71.677 82.14 1.253 0.477847 0.5476 0.00434499 71.677 82.14 1.253 0.477847 0.5476 0.00434499 0 0 0 0 0 0 2817.38 15 
107 1 C 70.943 81.446 2.262 0.472953 0.542973 0.00784387 70.943 81.446 2.262 0.472953 0.542973 0.00784387 0 0 0 0 0 0 3291.27 19 
108 1 C 71.194 81.714 3.643 0.474627 0.54476 0.0126327 71.194 81.714 3.643 0.474627 0.54476 0.0126327 0 0 0 0 0 0 3408.59 19 
110 1 C 72.612 82.723 5.396 0.48408 0.551487 0.0187116 72.612 82.723 5.396 0.48408 0.551487 0.0187116 0 0 0 0 0 0 2184.81 17 
111 1 C 71.75 82.196 6.405 0.478333 0.547973 0.0222104 71.75 82.196 6.405 0.478333 0.547973 0.0222104 0 0 0 0 0 0 2903.57 16 
112 1 C 72.052 82.406 7.786 0.480347 0.549373 0.0269993 72.052 82.406 7.786 0.480347 0.549373 0.0269993 0 0 0 0 0 0 2442.78 17 
113 1 C 71.26 81.778 8.795 0.475067 0.545187 0.0304982 71.26 81.778 8.795 0.475067 0.545187 0.0304982 0 0 0 0 0 0 3413.73 19 
5 1 C 78.848 81.533 2.103 0.525653 0.543553 0.00729251 78.848 81.533 2.103 0.525653 0.543553 0.00729251 0 0 0 0 0 0 3443.05 18 
15 1 C 77.48 82.608 0.351 0.516533 0.55072 0.00121715 77.48 82.608 0.351 0.516533 0.55072 0.00121715 0 0 0 0 0 0 2297.83 16 
16 1 C 77.796 82.42 1.731 0.51864 0.549467 0.00600254 77.796 82.42 1.731 0.51864 0.549467 0.00600254 0 0 0 0 0 0 2551.95 18 
17 1 C 76.898 82.882 2.74 0.512653 0.552547 0.00950142 76.898 82.882 2.74 0.512653 0.552547 0.00950142 0 0 0 0 0 0 2038.12 18 
18 1 C 79.087 81.253 3.484 0.527247 0.541687 0.0120814 79.087 81.253 3.484 0.527247 0.541687 0.0120814 0 0 0 0 0 0 3070.39 15 
19 1 C 78.386 81.981 4.493 0.522573 0.54654 0.0155802 78.386 81.981 4.493 0.522573 0.54654 0.0155802 0 0 0 0 0 0 3013.84 17 
20 1 C 78.657 81.732 5.874 0.52438 0.54488 0.0203691 78.657 81.732 5.874 0.52438 0.54488 0.0203691 0 0 0 0 0 0 3479.61 19 
21 1 C 77.873 82.37 6.883 0.519153 0.549133 0.023868 77.873 82.37 6.883 0.519153 0.549133 0.023868 0 0 0 0 0 0 2542.07 18 
36 1 C 75.198 83.253 0.988 0.50132 0.55502 0.00342606 75.198 83.253 0.988 0.50132 0.55502 0.00342606 0 0 0 0 0 0 1796.89 18 
37 1 C 75.564 83.222 2.369 0.50376 0.554813 0.00821491 75.564 83.222 2.369 0.50376 0.554813 0.00821491 0 0 0 0 0 0 1826.86 18 
39 1 C 77.235 82.734 4.121 0.5149 0.55156 0.0142903 77.235 82.734 4.121 0.5149 0.55156 0.0142903 0 0 0 0 0 0 2237.47 17 
40 1 C 76.287 83.084 5.13 0.50858 0.553893 0.0177892 76.287 83.084 5.13 0.50858 0.553893 0.0177892 0 0 0 0 0 0 1893.72 18 
41 1 C 76.639 82.978 6.511 0.510927 0.553187 0.022578 76.639 82.978 6.511 0.510927 0.553187 0.022578 0 0 0 0 0 0 2028 18 
42 1 C 75.656 83.21 7.52 0.504373 0.554733 0.0260769 75.656 83.21 7.52 0.504373 0.554733 0.0260769 0 0 0 0 0 0 1814.39 17 
43 1 C 78.172 82.155 8.264 0.521147 0.5477 0.0286568 78.172 82.155 8.264 0.521147 0.5477 0.0286568 0 0 0 0 0 0 2877.87 18 
73 1 C 76.018 83.147 8.901 0.506787 0.554313 0.0308657 76.018 83.147 8.901 0.506787 0.554313 0.0308657 0 0 0 0 0 0 1860.43 17 
330 1 C 71.279 74.123 10.335 0.475193 0.494153 0.0358384 71.279 74.123 10.335 0.475193 0.494153 0.0358384 0 0 0 0 0 0 3679.71 18 
331 1 C 72.073 73.499 11.344 0.480487 0.489993 0.0393373 72.073 73.499 11.344 0.480487 0.489993 0.0393373 0 0 0 0 0 0 2833.2 16 
333 1 C 70.783 74.666 13.097 0.471887 0.497773 0.0454161 70.783 74.666 13.097 0.471887 0.497773 0.0454161 0 0 0 0 0 0 3166.62 18 
334 1 C 70.564 74.962 14.477 0.470427 0.499747 0.0502015 70.564 74.962 14.477 0.470427 0.499747 0.0502015 0 0 0 0 0 0 2757.25 19 
335 1 C 71.213 74.187 15.486 0.474753 0.49458 0.0537004 71.213 74.187 15.486 0.474753 0.49458 0.0537004 0 0 0 0 0 0 3672.37 18 
386 1 C 73.672 72.812 9.591 0.491147 0.485413 0.0332584 73.672 72.812 9.591 0.491147 0.485413 0.0332584 0 0 0 0 0 0 2149.74 17 
387 1 C 73.318 72.912 10.972 0.488787 0.48608 0.0380473 73.318 72.912 10.972 0.488787 0.48608 0.0380473 0 0 0 0 0 0 2293.97 16 
388 1 C 74.305 72.697 11.981 0.495367 0.484647 0.0415462 74.305 72.697 11.981 0.495367 0.484647 0.0415462 0 0 0 0 0 0 2081.51 16 
389 1 C 71.771 73.708 12.725 0.478473 0.491387 0.0441261 71.771 73.708 12.725 0.478473 0.491387 0.0441261 0 0 0 0 0 0 3241.7 17 
390 1 C 72.635 73.185 13.734 0.484233 0.4879 0.047625 72.635 73.185 13.734 0.484233 0.4879 0.047625 0 0 0 0 0 0 2463.18 15 
391 1 C 72.309 73.356 15.115 0.48206 0.48904 0.0524138 72.309 73.356 15.115 0.48206 0.48904 0.0524138 0 0 0 0 0 0 2744.07 17 
392 1 C 73.231 72.941 16.124 0.488207 0.486273 0.0559127 73.231 72.941 16.124 0.488207 0.486273 0.0559127 0 0 0 0 0 0 2248.77 17 
393 1 C 70.96 74.454 16.867 0.473067 0.49636 0.0584892 70.96 74.454 16.867 0.473067 0.49636 0.0584892 0 0 0 0 0 0 3325.94 16 
394 1 C 71.697 73.763 17.876 0.47798 0.491753 0.0619881 71.697 73.763 17.876 0.47798 0.491753 0.0619881 0 0 0 0 0 0 3247.82 16 
446 1 C 73.941 72.754 13.362 0.49294 0.485027 0.046335 73.941 72.754 13.362 0.49294 0.485027 0.046335 0 0 0 0 0 0 2108.61 17 
447 1 C 74.947 72.66 14.371 0.499647 0.4844 0.0498339 74.947 72.66 14.371 0.499647 0.4844 0.0498339 0 0 0 0 0 0 2025.99 19 
448 1 C 74.58 72.672 15.752 0.4972 0.48448 0.0546228 74.58 72.672 15.752 0.4972 0.48448 0.0546228 0 0 0 0 0 0 2048.33 19 
450 1 C 72.886 73.071 17.505 0.485907 0.48714 0.0607016 72.886 73.071 17.505 0.485907 0.48714 0.0607016 0 0 0 0 0 0 2472.59 16 
442 1 C 75.039 72.661 9.22 0.50026 0.484407 0.0319719 75.039 72.661 9.22 0.50026 0.484407 0.0319719 0 0 0 0 0 0 2022.61 18 
443 1 C 76.043 72.777 10.229 0.506953 0.48518 0.0354708 76.043 72.777 10.229 0.506953 0.48518 0.0354708 0 0 0 0 0 0 2127.95 18 
444 1 C 75.681 72.712 11.609 0.50454 0.484747 0.0402562 75.681 72.712 11.609 0.50454 0.484747 0.0402562 0 0 0 0 0 0 2110.12 18 
445 1 C 76.663 72.949 12.619 0.511087 0.486327 0.0437585 76.663 72.949 12.619 0.511087 0.486327 0.0437585 0 0 0 0 0 0 2348.31 19 
449 1 C 75.59 72.7 16.761 0.503933 0.484667 0.0581216 75.59 72.7 16.761 0.503933 0.484667 0.0581216 0 0 0 0 0 0 2113.01 17 
498 1 C 77.34 73.237 9.857 0.5156 0.488247 0.0341808 77.34 73.237 9.857 0.5156 0.488247 0.0341808 0 0 0 0 0 0 2518.33 17 
499 1 C 78.192 73.779 10.866 0.52128 0.49186 0.0376797 78.192 73.779 10.866 0.52128 0.49186 0.0376797 0 0 0 0 0 0 3359.18 18 
500 1 C 77.894 73.563 12.247 0.519293 0.49042 0.0424686 77.894 73.563 12.247 0.519293 0.49042 0.0424686 0 0 0 0 0 0 2912.54 17 
501 1 C 78.675 74.205 13.256 0.5245 0.4947 0.0459674 78.675 74.205 13.256 0.5245 0.4947 0.0459674 0 0 0 0 0 0 3666.12 18 
502 1 C 76.311 72.842 13.999 0.50874 0.485613 0.0485439 76.311 72.842 13.999 0.50874 0.485613 0.0485439 0 0 0 0 0 0 2128.37 19 
503 1 C 77.257 73.196 15.008 0.515047 0.487973 0.0520428 77.257 73.196 15.008 0.515047 0.487973 0.0520428 0 0 0 0 0 0 2531.37 16 
504 1 C 76.921 73.046 16.389 0.512807 0.486973 0.0568317 76.921 73.046 16.389 0.512807 0.486973 0.0568317 0 0 0 0 0 0 2354.24 18 
505 1 C 77.818 73.512 17.398 0.518787 0.49008 0.0603305 77.818 73.512 17.398 0.518787 0.49008 0.0603305 0 0 0 0 0 0 3018.07 17 
551 1 C 79.159 74.759 10.494 0.527727 0.498393 0.0363897 79.159 74.759 10.494 0.527727 0.498393 0.0363897 0 0 0 0 0 0 3106.4 17 
555 1 C 78.405 73.954 14.637 0.5227 0.493027 0.0507563 78.405 73.954 14.637 0.5227 0.493027 0.0507563 0 0 0 0 0 0 3486.69 17 
556 1 C 79.102 74.686 15.646 0.527347 0.497907 0.0542552 79.102 74.686 15.646 0.527347 0.497907 0.0542552 0 0 0 0 0 0 2994.21 16 
557 1 C 78.865 74.404 17.027 0.525767 0.496027 0.059044 78.865 74.404 17.027 0.525767 0.496027 0.059044 0 0 0 0 0 0 3604.42 18 
3710 2 C 72.043 78.5989 17.1707 0.480287 0.523993 0.0595424 72.043 78.5989 17.1707 0.480287 0.523993 0.0595424 0 0 0 0.000949327 -0.011225 0.00538129 9.85627 18 
3662 2 C 74.2559 80.6126 8.78276 0.495039 0.537417 0.0304557 74.2559 80.6126 8.78276 0.495039 0.537417 0.0304557 0 0 0 0.00985707 -0.00462142 0.000447524 10.4233 19 
3665 2 C 72.3473 77.9113 8.81028 0.482315 0.519409 0.0305511 72.3473 77.9113 8.81028 0.482315 0.519409 0.0305511 0 0 0 0.0108048 -0.0146657 -0.000187903 9.50292 17 
3670 2 C 74.124 75.4134 11.3208 0.49416 0.502756 0.0392569 74.124 75.4134 11.3208 0.49416 0.502756 0.0392569 0 0 0 0.0169193 -0.00358432 -0.00185706 9.72565 21 
163 1 C 69.963 79.794 9.432 0.46642 0.53196 0.0327071 69.963 79.794 9.432 0.46642 0.53196 0.0327071 0 0 0 0 0 0 2122.9 19 
167 1 C 70.449 80.782 13.575 0.46966 0.538547 0.0470736 70.449 80.782 13.575 0.46966 0.538547 0.0470736 0 0 0 0 0 0 2614.71 18 
217 1 C 69.658 78.452 9.06 0.464387 0.523013 0.0314171 69.658 78.452 9.06 0.464387 0.523013 0.0314171 0 0 0 0 0 0 1912.18 16 
218 1 C 69.66 77.442 10.069 0.4644 0.51628 0.034916 69.66 77.442 10.069 0.4644 0.51628 0.034916 0 0 0 0 0 0 1940.41 17 
219 1 C 70.102 80.134 10.813 0.467347 0.534227 0.0374959 70.102 80.134 10.813 0.467347 0.534227 0.0374959 0 0 0 0 0 0 2316.3 17 
220 1 C 69.777 79.177 11.822 0.46518 0.527847 0.0409948 69.777 79.177 11.822 0.46518 0.527847 0.0409948 0 0 0 0 0 0 1993.72 15 
221 1 C 69.874 79.532 13.203 0.465827 0.530213 0.0457837 69.874 79.532 13.203 0.465827 0.530213 0.0457837 0 0 0 0 0 0 2097.16 17 
222 1 C 69.667 78.543 14.212 0.464447 0.52362 0.0492825 69.667 78.543 14.212 0.464447 0.52362 0.0492825 0 0 0 0 0 0 1922.9 17 
223 1 C 70.656 81.087 14.955 0.47104 0.54058 0.051859 70.656 81.087 14.955 0.47104 0.54058 0.051859 0 0 0 0 0 0 2993.38 17 
224 1 C 70.14 80.218 15.964 0.4676 0.534787 0.0553579 70.14 80.218 15.964 0.4676 0.534787 0.0553579 0 0 0 0 0 0 2307.63 17 
225 1 C 70.308 80.545 17.345 0.46872 0.536967 0.0601468 70.308 80.545 17.345 0.46872 0.536967 0.0601468 0 0 0 0 0 0 2569.19 18 
274 1 C 69.971 76.101 9.698 0.466473 0.50734 0.0336295 69.971 76.101 9.698 0.466473 0.50734 0.0336295 0 0 0 0 0 0 2164.52 19 
275 1 C 70.414 75.193 10.707 0.469427 0.501287 0.0371284 70.414 75.193 10.707 0.469427 0.501287 0.0371284 0 0 0 0 0 0 2685.16 17 
276 1 C 69.637 77.809 11.45 0.464247 0.518727 0.0397048 69.637 77.809 11.45 0.464247 0.518727 0.0397048 0 0 0 0 0 0 1900.27 15 
277 1 C 69.762 76.806 12.459 0.46508 0.51204 0.0432037 69.762 76.806 12.459 0.46508 0.51204 0.0432037 0 0 0 0 0 0 2003.53 17 
278 1 C 69.694 77.168 13.84 0.464627 0.514453 0.0479926 69.694 77.168 13.84 0.464627 0.514453 0.0479926 0 0 0 0 0 0 1955.16 18 
279 1 C 69.94 76.188 14.849 0.466267 0.50792 0.0514914 69.94 76.188 14.849 0.466267 0.50792 0.0514914 0 0 0 0 0 0 2146.69 19 
280 1 C 69.72 78.907 15.593 0.4648 0.526047 0.0540714 69.72 78.907 15.593 0.4648 0.526047 0.0540714 0 0 0 0 0 0 1998.72 17 
281 1 C 69.635 77.901 16.602 0.464233 0.51934 0.0575703 69.635 77.901 16.602 0.464233 0.51934 0.0575703 0 0 0 0 0 0 1910.58 17 
282 1 C 69.644 78.268 17.983 0.464293 0.521787 0.0623591 69.644 78.268 17.983 0.464293 0.521787 0.0623591 0 0 0 0 0 0 1910.54 16 
332 1 C 70.233 75.513 12.087 0.46822 0.50342 0.0419137 70.233 75.513 12.087 0.46822 0.50342 0.0419137 0 0 0 0 0 0 2399.15 19 
336 1 C 69.829 76.538 16.23 0.465527 0.510253 0.0562803 69.829 76.538 16.23 0.465527 0.510253 0.0562803 0 0 0 0 0 0 2040.38 19 
337 1 C 70.191 75.595 17.239 0.46794 0.503967 0.0597792 70.191 75.595 17.239 0.46794 0.503967 0.0597792 0 0 0 0 0 0 2459 19 