ITEM: TIMESTEP
2500000
ITEM: NUMBER OF ATOMS
5084
ITEM: BOX BOUNDS pp pp pp
0.0000000000000000e+00 1.5000000000000000e+02
0.0000000000000000e+00 1.5000000000000000e+02
0.0000000000000000e+00 2.8837799999999999e+02
ITEM: ATOMS id type element x y z xs ys zs xu yu zu xsu ysu zsu ix iy iz vx vy vz c_voro1[1] c_voro1[2] 
265 1 C 71.414 73.998 0.032 0.476093 0.49332 0.000110965 71.414 73.998 0.032 0.476093 0.49332 0.000110965 0 0 0 0 0 0 3585.71 18 
266 1 C 71.148 74.252 1.413 0.47432 0.495013 0.00489982 71.148 74.252 1.413 0.47432 0.495013 0.00489982 0 0 0 0 0 0 3567.38 17 
267 1 C 71.92 73.601 2.422 0.479467 0.490673 0.0083987 71.92 73.601 2.422 0.479467 0.490673 0.0083987 0 0 0 0 0 0 2924.65 18 
269 1 C 70.671 74.812 4.174 0.47114 0.498747 0.0144741 70.671 74.812 4.174 0.47114 0.498747 0.0144741 0 0 0 0 0 0 3009.78 16 
271 1 C 71.084 74.318 6.564 0.473893 0.495453 0.0227618 71.084 74.318 6.564 0.473893 0.495453 0.0227618 0 0 0 0 0 0 3670.07 17 
321 1 C 73.494 72.859 0.669 0.48996 0.485727 0.00231987 73.494 72.859 0.669 0.48996 0.485727 0.00231987 0 0 0 0 0 0 2182.47 19 
322 1 C 73.144 72.971 2.05 0.487627 0.486473 0.00710873 73.144 72.971 2.05 0.487627 0.486473 0.00710873 0 0 0 0 0 0 2335.21 17 
323 1 C 74.123 72.722 3.059 0.494153 0.484813 0.0106076 74.123 72.722 3.059 0.494153 0.484813 0.0106076 0 0 0 0 0 0 2075.32 17 
324 1 C 71.625 73.82 3.803 0.4775 0.492133 0.0131876 71.625 73.82 3.803 0.4775 0.492133 0.0131876 0 0 0 0 0 0 3464.96 18 
325 1 C 72.471 73.267 4.812 0.48314 0.488447 0.0166864 72.471 73.267 4.812 0.48314 0.488447 0.0166864 0 0 0 0 0 0 2578.97 18 
326 1 C 72.151 73.45 6.192 0.481007 0.489667 0.0214718 72.151 73.45 6.192 0.481007 0.489667 0.0214718 0 0 0 0 0 0 2848.98 18 
327 1 C 73.057 73.003 7.202 0.487047 0.486687 0.0249742 73.057 73.003 7.202 0.487047 0.486687 0.0249742 0 0 0 0 0 0 2336.63 20 
328 1 C 70.841 74.594 7.945 0.472273 0.497293 0.0275506 70.841 74.594 7.945 0.472273 0.497293 0.0275506 0 0 0 0 0 0 3108.38 17 
329 1 C 71.554 73.878 8.954 0.477027 0.49252 0.0310495 71.554 73.878 8.954 0.477027 0.49252 0.0310495 0 0 0 0 0 0 3397.24 16 
377 1 C 74.855 72.66 0.297 0.499033 0.4844 0.0010299 74.855 72.66 0.297 0.499033 0.4844 0.0010299 0 0 0 0 0 0 2066.49 16 
381 1 C 73.761 72.791 4.44 0.49174 0.485273 0.0153965 73.761 72.791 4.44 0.49174 0.485273 0.0153965 0 0 0 0 0 0 2162.3 20 
382 1 C 74.763 72.662 5.449 0.49842 0.484413 0.0188953 74.763 72.662 5.449 0.49842 0.484413 0.0188953 0 0 0 0 0 0 2064.15 16 
383 1 C 74.396 72.687 6.83 0.495973 0.48458 0.0236842 74.396 72.687 6.83 0.495973 0.48458 0.0236842 0 0 0 0 0 0 2062.63 17 
385 1 C 72.718 73.146 8.582 0.484787 0.48764 0.0297596 72.718 73.146 8.582 0.484787 0.48764 0.0297596 0 0 0 0 0 0 2477.02 18 
378 1 C 75.862 72.742 1.306 0.505747 0.484947 0.00452878 75.862 72.742 1.306 0.505747 0.484947 0.00452878 0 0 0 0 0 0 2091.57 17 
379 1 C 75.498 72.69 2.687 0.50332 0.4846 0.00931763 75.498 72.69 2.687 0.50332 0.4846 0.00931763 0 0 0 0 0 0 2046.61 16 
380 1 C 76.488 72.892 3.696 0.50992 0.485947 0.0128165 76.488 72.892 3.696 0.50992 0.485947 0.0128165 0 0 0 0 0 0 2282.43 17 
384 1 C 75.407 72.681 7.839 0.502713 0.48454 0.0271831 75.407 72.681 7.839 0.502713 0.48454 0.0271831 0 0 0 0 0 0 2055.22 16 
433 1 C 79.267 74.907 0.191 0.528447 0.49938 0.000662325 79.267 74.907 0.191 0.528447 0.49938 0.000662325 0 0 0 0 0 0 2804.82 19 
434 1 C 77.174 73.156 0.935 0.514493 0.487707 0.00324227 77.174 73.156 0.935 0.514493 0.487707 0.00324227 0 0 0 0 0 0 2445.87 17 
435 1 C 78.045 73.669 1.944 0.5203 0.491127 0.00674115 78.045 73.669 1.944 0.5203 0.491127 0.00674115 0 0 0 0 0 0 3139.57 18 
436 1 C 77.74 73.463 3.325 0.518267 0.489753 0.01153 77.74 73.463 3.325 0.518267 0.489753 0.01153 0 0 0 0 0 0 2803.85 18 
437 1 C 78.542 74.077 4.334 0.523613 0.493847 0.0150289 78.542 74.077 4.334 0.523613 0.493847 0.0150289 0 0 0 0 0 0 3719.73 21 
438 1 C 76.133 72.797 5.077 0.507553 0.485313 0.0176054 76.133 72.797 5.077 0.507553 0.485313 0.0176054 0 0 0 0 0 0 2124.48 16 
439 1 C 77.091 73.118 6.086 0.51394 0.487453 0.0211042 77.091 73.118 6.086 0.51394 0.487453 0.0211042 0 0 0 0 0 0 2477.18 15 
440 1 C 76.75 72.98 7.467 0.511667 0.486533 0.0258931 76.75 72.98 7.467 0.511667 0.486533 0.0258931 0 0 0 0 0 0 2301.04 16 
441 1 C 77.662 73.415 8.476 0.517747 0.489433 0.029392 77.662 73.415 8.476 0.517747 0.489433 0.029392 0 0 0 0 0 0 2850.21 17 
490 1 C 79.045 74.614 1.572 0.526967 0.497427 0.00545118 79.045 74.614 1.572 0.526967 0.497427 0.00545118 0 0 0 0 0 0 3266.63 19 
494 1 C 78.264 73.836 5.714 0.52176 0.49224 0.0198143 78.264 73.836 5.714 0.52176 0.49224 0.0198143 0 0 0 0 0 0 3305.08 16 
495 1 C 78.986 74.543 6.724 0.526573 0.496953 0.0233166 78.986 74.543 6.724 0.526573 0.496953 0.0233166 0 0 0 0 0 0 3204.95 21 
496 1 C 78.739 74.27 8.104 0.524927 0.495133 0.028102 78.739 74.27 8.104 0.524927 0.495133 0.028102 0 0 0 0 0 0 3683.4 19 
105 1 C 70.029 79.965 0.51 0.46686 0.5331 0.00176851 70.029 79.965 0.51 0.46686 0.5331 0.00176851 0 0 0 0 0 0 2191.49 16 
109 1 C 70.55 80.936 4.652 0.470333 0.539573 0.0161316 70.55 80.936 4.652 0.470333 0.539573 0.0161316 0 0 0 0 0 0 2712.2 17 
154 1 C 69.678 78.635 0.138 0.46452 0.524233 0.000478539 69.678 78.635 0.138 0.46452 0.524233 0.000478539 0 0 0 0 0 0 1955.25 18 
155 1 C 69.646 77.625 1.147 0.464307 0.5175 0.00397742 69.646 77.625 1.147 0.464307 0.5175 0.00397742 0 0 0 0 0 0 1895.89 19 
156 1 C 70.18 80.301 1.891 0.467867 0.53534 0.00655737 70.18 80.301 1.891 0.467867 0.53534 0.00655737 0 0 0 0 0 0 2417.54 18 
157 1 C 69.822 79.356 2.9 0.46548 0.52904 0.0100562 69.822 79.356 2.9 0.46548 0.52904 0.0100562 0 0 0 0 0 0 2037.04 18 
158 1 C 69.931 79.707 4.281 0.466207 0.53138 0.0148451 69.931 79.707 4.281 0.466207 0.53138 0.0148451 0 0 0 0 0 0 2164.7 19 
159 1 C 69.691 78.726 5.29 0.464607 0.52484 0.018344 69.691 78.726 5.29 0.464607 0.52484 0.018344 0 0 0 0 0 0 1906.4 19 
160 1 C 70.767 81.233 6.033 0.47178 0.541553 0.0209205 70.767 81.233 6.033 0.47178 0.541553 0.0209205 0 0 0 0 0 0 3153.13 19 
161 1 C 70.221 80.383 7.042 0.46814 0.535887 0.0244193 70.221 80.383 7.042 0.46814 0.535887 0.0244193 0 0 0 0 0 0 2408.33 16 
162 1 C 70.401 80.704 8.423 0.46934 0.538027 0.0292082 70.401 80.704 8.423 0.46934 0.538027 0.0292082 0 0 0 0 0 0 2643.44 15 
209 1 C 69.91 76.275 0.775 0.466067 0.5085 0.00268744 69.91 76.275 0.775 0.466067 0.5085 0.00268744 0 0 0 0 0 0 2088.88 17 
210 1 C 70.321 75.352 1.784 0.468807 0.502347 0.00618632 70.321 75.352 1.784 0.468807 0.502347 0.00618632 0 0 0 0 0 0 2542.6 16 
211 1 C 69.635 77.993 2.528 0.464233 0.519953 0.00876627 69.635 77.993 2.528 0.464233 0.519953 0.00876627 0 0 0 0 0 0 1918.37 16 
212 1 C 69.725 76.986 3.537 0.464833 0.51324 0.0122652 69.725 76.986 3.537 0.464833 0.51324 0.0122652 0 0 0 0 0 0 1990.67 18 
213 1 C 69.67 77.35 4.918 0.464467 0.515667 0.017054 69.67 77.35 4.918 0.464467 0.515667 0.017054 0 0 0 0 0 0 1926.69 18 
214 1 C 69.881 76.362 5.927 0.465873 0.50908 0.0205529 69.881 76.362 5.927 0.465873 0.50908 0.0205529 0 0 0 0 0 0 2140.98 17 
215 1 C 69.756 79.088 6.67 0.46504 0.527253 0.0231294 69.756 79.088 6.67 0.46504 0.527253 0.0231294 0 0 0 0 0 0 2041.19 18 
216 1 C 69.636 78.085 7.679 0.46424 0.520567 0.0266282 69.636 78.085 7.679 0.46424 0.520567 0.0266282 0 0 0 0 0 0 1927.16 19 
268 1 C 70.151 75.678 3.165 0.467673 0.50452 0.0109752 70.151 75.678 3.165 0.467673 0.50452 0.0109752 0 0 0 0 0 0 2319.84 16 
270 1 C 70.463 75.115 5.555 0.469753 0.500767 0.0192629 70.463 75.115 5.555 0.469753 0.500767 0.0192629 0 0 0 0 0 0 2630.67 17 
272 1 C 69.783 76.717 7.308 0.46522 0.511447 0.0253417 69.783 76.717 7.308 0.46522 0.511447 0.0253417 0 0 0 0 0 0 1968.92 17 
273 1 C 70.112 75.761 8.317 0.467413 0.505073 0.0288406 70.112 75.761 8.317 0.467413 0.505073 0.0288406 0 0 0 0 0 0 2345.13 18 
3646 2 C 73.1061 78.3338 4.66666 0.487374 0.522225 0.0161825 73.1061 78.3338 4.66666 0.487374 0.522225 0.0161825 0 0 0 0.00914777 -0.00677393 0.00779114 8.82944 16 
3623 2 C 72.854 77.833 2.65634 0.485693 0.518887 0.00921132 72.854 77.833 2.65634 0.485693 0.518887 0.00921132 0 0 0 -0.00850012 -0.00103014 0.00712046 8.80617 17 
3664 2 C 72.8833 77.785 8.32347 0.485888 0.518567 0.0288631 72.8833 77.785 8.32347 0.485888 0.518567 0.0288631 0 0 0 0.0251331 -0.00732539 0.00734644 10.6083 20 
3650 2 C 72.9204 76.5532 6.42188 0.486136 0.510355 0.022269 72.9204 76.5532 6.42188 0.486136 0.510355 0.022269 0 0 0 -0.0138924 -0.00793843 -0.00268197 10.0564 21 
3663 3 C 72.9102 76.8346 8.21313 0.486068 0.51223 0.0284804 72.9102 76.8346 8.21313 0.486068 0.51223 0.0284804 0 0 0 -0.00568073 -0.00742936 0.000538123 5.53961 11 
3621 3 C 72.8253 76.8785 2.72252 0.485502 0.512524 0.0094408 72.8253 76.8785 2.72252 0.485502 0.512524 0.0094408 0 0 0 -0.00387518 -0.00152293 0.00211647 5.31779 12 
3622 2 C 72.6739 76.7069 3.65195 0.484492 0.511379 0.0126638 72.6739 76.7069 3.65195 0.484492 0.511379 0.0126638 0 0 0 -0.0120635 -0.00694688 -0.000217478 8.68539 16 
3648 3 C 73.0591 76.5904 5.47552 0.487061 0.510603 0.0189873 73.0591 76.5904 5.47552 0.487061 0.510603 0.0189873 0 0 0 -0.008783 0.00538263 -0.00141041 5.95829 13 
3630 3 C 73.3954 79.3959 2.14368 0.489302 0.529306 0.00743359 73.3954 79.3959 2.14368 0.489302 0.529306 0.00743359 0 0 0 -0.00240701 -0.000184706 0.00335916 4.59893 11 
3645 3 C 73.2855 79.2696 4.75715 0.48857 0.528464 0.0164962 73.2855 79.2696 4.75715 0.48857 0.528464 0.0164962 0 0 0 0.00748358 -0.00541884 -0.00310572 5.31492 10 
3647 2 C 73.073 79.6387 3.89995 0.487153 0.530925 0.0135237 73.073 79.6387 3.89995 0.487153 0.530925 0.0135237 0 0 0 0.0178733 -0.017565 -0.0108706 9.58608 19 
3632 2 C 72.9811 79.8244 1.39462 0.486541 0.532162 0.00483607 72.9811 79.8244 1.39462 0.486541 0.532162 0.00483607 0 0 0 -0.00439198 -0.0252818 -0.00986787 10.5138 22 
3660 3 C 73.0272 79.5099 7.5451 0.486848 0.530066 0.0261639 73.0272 79.5099 7.5451 0.486848 0.530066 0.0261639 0 0 0 0.000616552 0.00272988 -0.00231492 4.91829 8 
3661 2 C 72.8692 79.4979 6.60112 0.485795 0.529986 0.0228905 72.8692 79.4979 6.60112 0.485795 0.529986 0.0228905 0 0 0 0.0108272 0.00549264 -0.00405813 10.3331 21 
3631 2 C 74.3188 79.6394 2.07891 0.495459 0.530929 0.00720897 74.3188 79.6394 2.07891 0.495459 0.530929 0.00720897 0 0 0 -0.00851166 0.0252853 0.0118217 10.6607 22 
3667 2 C 74.8692 79.7448 7.64238 0.499128 0.531632 0.0265013 74.8692 79.7448 7.64238 0.499128 0.531632 0.0265013 0 0 0 -0.00324439 0.00387109 0.0257811 10.4378 19 
3643 2 C 75.0645 79.7037 4.83992 0.50043 0.531358 0.0167833 75.0645 79.7037 4.83992 0.50043 0.531358 0.0167833 0 0 0 0.00110971 -0.0140717 0.00745546 10.9431 21 
3662 2 C 72.5153 80.2528 7.8647 0.483435 0.535019 0.0272722 72.5153 80.2528 7.8647 0.483435 0.535019 0.0272722 0 0 0 -0.00642057 -0.000949102 -0.00505055 9.78913 23 
3649 2 C 73.9951 76.4238 5.36346 0.4933 0.509492 0.0185987 73.9951 76.4238 5.36346 0.4933 0.509492 0.0185987 0 0 0 -0.00463243 0.0258652 0.00253583 9.79111 18 
5071 2 C 72.6072 76.6245 0.760694 0.484048 0.51083 0.00263784 72.6072 76.6245 289.139 0.484048 0.51083 1.00264 0 0 1 -0.00273912 0.00956944 0.00226377 9.8473 21 
3625 2 C 74.3549 76.1334 2.41751 0.495699 0.507556 0.00838312 74.3549 76.1334 2.41751 0.495699 0.507556 0.00838312 0 0 0 0.000576611 -0.000887794 -0.00251708 10.1075 24 
3652 2 C 74.6949 76.1897 7.99539 0.497966 0.507931 0.0277254 74.6949 76.1897 7.99539 0.497966 0.507931 0.0277254 0 0 0 -0.00379308 -0.00714434 -0.014563 10.4999 18 
3665 2 C 73.0434 76.494 9.0977 0.486956 0.50996 0.0315478 73.0434 76.494 9.0977 0.486956 0.50996 0.0315478 0 0 0 -0.00648676 -0.0176043 -0.00324986 9.37378 16 
3666 3 C 75.7758 80.0393 7.73011 0.505172 0.533595 0.0268055 75.7758 80.0393 7.73011 0.505172 0.533595 0.0268055 0 0 0 -0.00219227 0.00645703 0.00621342 4.964 10 
3668 2 C 75.9946 80.4013 6.87147 0.506631 0.536009 0.023828 75.9946 80.4013 6.87147 0.506631 0.536009 0.023828 0 0 0 -0.0204899 0.00351752 0.00030773 10.4421 21 
3642 3 C 76.0072 79.8659 4.87417 0.506715 0.532439 0.016902 76.0072 79.8659 4.87417 0.506715 0.532439 0.016902 0 0 0 -1.64943e-05 -0.00620089 0.000923038 5.48648 9 
5076 3 C 76.0182 79.9294 2.2345 0.506788 0.532863 0.0077485 76.0182 79.9294 290.612 0.506788 0.532863 1.00775 0 0 1 0.00276532 0.00226928 0.00404838 4.73761 11 
3644 2 C 76.2409 80.1126 3.97932 0.508273 0.534084 0.013799 76.2409 80.1126 3.97932 0.508273 0.534084 0.013799 0 0 0 -0.00730669 -0.00960314 -0.00191305 9.56525 18 
5077 2 C 76.2758 80.4161 1.45156 0.508505 0.536108 0.00503352 76.2758 80.4161 289.83 0.508505 0.536108 1.00503 0 0 1 -0.00624707 -0.0119779 -0.00776031 10.7141 18 
3638 2 C 75.7475 75.1832 5.64999 0.504984 0.501221 0.0195923 75.7475 75.1832 5.64999 0.504984 0.501221 0.0195923 0 0 0 0.0222285 0.00164823 -0.00257585 10.4747 23 
3651 3 C 75.526 75.717 8.04101 0.503507 0.50478 0.0278836 75.526 75.717 8.04101 0.503507 0.50478 0.0278836 0 0 0 0.00137309 0.00300718 -0.00356175 8.0999 16 
3636 3 C 75.6038 75.8413 4.96997 0.504025 0.505609 0.0172342 75.6038 75.8413 4.96997 0.504025 0.505609 0.0172342 0 0 0 -0.000232256 -0.00107841 -0.000484439 5.22863 9 
3624 3 C 75.1138 75.6129 2.15422 0.500759 0.504086 0.00747014 75.1138 75.6129 2.15422 0.500759 0.504086 0.00747014 0 0 0 0.00479973 0.00452847 -0.00101403 5.95562 14 
3626 2 C 75.5218 75.3492 2.97901 0.503479 0.502328 0.0103302 75.5218 75.3492 2.97901 0.503479 0.502328 0.0103302 0 0 0 -0.00429109 -0.00633322 -1.88657e-05 9.08661 18 
3637 2 C 76.2435 76.5272 5.16079 0.50829 0.510182 0.0178959 76.2435 76.5272 5.16079 0.50829 0.510182 0.0178959 0 0 0 -0.00992442 0.0107042 -0.010342 9.20566 25 
3653 2 C 76.1862 76.4019 8.14732 0.507908 0.509346 0.0282522 76.1862 76.4019 8.14732 0.507908 0.509346 0.0282522 0 0 0 -0.00918467 0.0104954 0.0137077 10.0292 16 
3629 2 C 76.7154 76.6602 2.35824 0.511436 0.511068 0.0081776 76.7154 76.6602 2.35824 0.511436 0.511068 0.0081776 0 0 0 0.0129303 -0.0055803 0.000138636 9.33566 19 
5078 2 C 76.4712 79.0899 2.15502 0.509808 0.527266 0.00747288 76.4712 79.0899 290.533 0.509808 0.527266 1.00747 0 0 1 -0.0089828 -0.004374 0.00730286 10.0674 22 
3655 2 C 76.6904 78.6585 8.06663 0.511269 0.52439 0.0279724 76.6904 78.6585 8.06663 0.511269 0.52439 0.0279724 0 0 0 0.0120866 0.00494777 0.00921225 9.5989 20 
3641 2 C 77.0209 78.4634 5.15759 0.513473 0.52309 0.0178848 77.0209 78.4634 5.15759 0.513473 0.52309 0.0178848 0 0 0 0.0233938 0.0158149 0.00890518 9.36216 18 
3654 3 C 77.1416 77.8221 8.18117 0.514277 0.518814 0.0283696 77.1416 77.8221 8.18117 0.514277 0.518814 0.0283696 0 0 0 0.00101055 -0.00214079 0.00118573 4.88319 11 
3640 2 C 77.4313 77.6606 6.37373 0.516209 0.517738 0.022102 77.4313 77.6606 6.37373 0.516209 0.517738 0.022102 0 0 0 -0.0176573 -0.0211807 -0.0016316 9.3958 19 
3627 3 C 77.2608 77.4277 2.53079 0.515072 0.516184 0.00877595 77.2608 77.4277 2.53079 0.515072 0.516184 0.00877595 0 0 0 0.0020336 0.00202884 0.000832989 5.65585 13 
3628 2 C 77.6276 77.2707 3.40087 0.517517 0.515138 0.0117931 77.6276 77.2707 3.40087 0.517517 0.515138 0.0117931 0 0 0 0.0302344 -0.00898167 -0.0130334 9.19633 17 
3639 3 C 77.4409 77.6433 5.41674 0.516273 0.517622 0.0187835 77.4409 77.6433 5.41674 0.516273 0.517622 0.0187835 0 0 0 -0.00411251 -0.00167081 -0.00186187 5.40297 11 
1 1 C 80.209 78.477 0.457 0.534727 0.52318 0.00158473 80.209 78.477 0.457 0.534727 0.52318 0.00158473 0 0 0 0 0 0 1929.79 17 
2 1 C 80.015 79.469 1.466 0.533433 0.529793 0.00508361 80.015 79.469 1.466 0.533433 0.529793 0.00508361 0 0 0 0 0 0 2117.8 17 
3 1 C 80.217 78.386 5.608 0.53478 0.522573 0.0194467 80.217 78.386 5.608 0.53478 0.522573 0.0194467 0 0 0 0 0 0 1921.18 16 
4 1 C 79.455 80.726 1.094 0.5297 0.538173 0.00379363 79.455 80.726 1.094 0.5297 0.538173 0.00379363 0 0 0 0 0 0 2585.02 18 
6 1 C 80.107 79.113 2.847 0.534047 0.52742 0.00987246 80.107 79.113 2.847 0.534047 0.52742 0.00987246 0 0 0 0 0 0 1980.89 17 
7 1 C 79.795 80.073 3.856 0.531967 0.53382 0.0133713 79.795 80.073 3.856 0.531967 0.53382 0.0133713 0 0 0 0 0 0 2326 18 
8 1 C 79.929 79.731 5.236 0.53286 0.53154 0.0181567 79.929 79.731 5.236 0.53286 0.53154 0.0181567 0 0 0 0 0 0 2095.52 17 
9 1 C 79.503 80.647 6.246 0.53002 0.537647 0.0216591 79.503 80.647 6.246 0.53002 0.537647 0.0216591 0 0 0 0 0 0 2657.02 18 
10 1 C 80.234 78.018 6.989 0.534893 0.52012 0.0242356 80.234 78.018 6.989 0.534893 0.52012 0.0242356 0 0 0 0 0 0 1912.31 17 
11 1 C 80.127 79.023 7.998 0.53418 0.52682 0.0277344 80.127 79.023 7.998 0.53418 0.52682 0.0277344 0 0 0 0 0 0 2035.09 18 
22 1 C 79.678 80.323 7.626 0.531187 0.535487 0.0264445 79.678 80.323 7.626 0.531187 0.535487 0.0264445 0 0 0 0 0 0 2345.06 18 
23 1 C 79.143 81.181 8.635 0.52762 0.541207 0.0299433 79.143 81.181 8.635 0.52762 0.541207 0.0299433 0 0 0 0 0 0 3116.45 20 
489 1 C 80.165 77.102 0.828 0.534433 0.514013 0.00287123 80.165 77.102 0.828 0.534433 0.514013 0.00287123 0 0 0 0 0 0 1962.4 17 
491 1 C 79.605 75.455 2.581 0.5307 0.503033 0.00895006 79.605 75.455 2.581 0.5307 0.503033 0.00895006 0 0 0 0 0 0 2413.57 18 
492 1 C 79.42 75.137 3.962 0.529467 0.500913 0.0137389 79.42 75.137 3.962 0.529467 0.500913 0.0137389 0 0 0 0 0 0 2717.7 18 
493 1 C 79.874 76.039 4.971 0.532493 0.506927 0.0172378 79.874 76.039 4.971 0.532493 0.506927 0.0172378 0 0 0 0 0 0 2160.96 17 
544 1 C 80.093 76.741 2.209 0.533953 0.511607 0.00766009 80.093 76.741 2.209 0.533953 0.511607 0.00766009 0 0 0 0 0 0 2054.18 17 
545 1 C 80.23 77.742 3.218 0.534867 0.51828 0.011159 80.23 77.742 3.218 0.534867 0.51828 0.011159 0 0 0 0 0 0 1915.1 16 
546 1 C 80.202 77.375 4.599 0.53468 0.515833 0.0159478 80.202 77.375 4.599 0.53468 0.515833 0.0159478 0 0 0 0 0 0 1930.37 17 
547 1 C 79.729 75.701 6.352 0.531527 0.504673 0.0220266 79.729 75.701 6.352 0.531527 0.504673 0.0220266 0 0 0 0 0 0 2373.28 17 
548 1 C 80.071 76.652 7.361 0.533807 0.511013 0.0255255 80.071 76.652 7.361 0.533807 0.511013 0.0255255 0 0 0 0 0 0 2035.11 17 
549 1 C 79.968 76.299 8.742 0.53312 0.50866 0.0303144 79.968 76.299 8.742 0.53312 0.50866 0.0303144 0 0 0 0 0 0 2156.87 16 
3656 2 C 77.5623 77.8918 9.03811 0.517082 0.519279 0.0313412 77.5623 77.8918 9.03811 0.517082 0.519279 0.0313412 0 0 0 0.0341499 -0.000878995 -0.0151834 9.64011 20 
79 1 C 76.464 83.034 15.433 0.50976 0.55356 0.0535166 76.464 83.034 15.433 0.50976 0.55356 0.0535166 0 0 0 0 0 0 1974.94 16 
5060 2 C 75.3102 75.4587 0.228079 0.502068 0.503058 0.000790903 75.3102 75.4587 288.606 0.502068 0.503058 1.00079 0 0 1 -0.00167248 0.0102538 0.00461866 9.53001 20 
38 1 C 74.554 83.245 3.378 0.497027 0.554967 0.0117138 74.554 83.245 3.378 0.497027 0.554967 0.0117138 0 0 0 0 0 0 1777.82 19 
65 1 C 73.826 83.142 0.616 0.492173 0.55428 0.00213609 73.826 83.142 0.616 0.492173 0.55428 0.00213609 0 0 0 0 0 0 1857.83 19 
66 1 C 72.863 82.837 1.625 0.485753 0.552247 0.00563497 72.863 82.837 1.625 0.485753 0.552247 0.00563497 0 0 0 0 0 0 2115.85 16 
67 1 C 73.206 82.969 3.006 0.48804 0.553127 0.0104238 73.206 82.969 3.006 0.48804 0.553127 0.0104238 0 0 0 0 0 0 1971.28 18 
68 1 C 72.287 82.55 4.015 0.481913 0.550333 0.0139227 72.287 82.55 4.015 0.481913 0.550333 0.0139227 0 0 0 0 0 0 2398.59 16 
69 1 C 74.922 83.259 4.759 0.49948 0.55506 0.0165026 74.922 83.259 4.759 0.49948 0.55506 0.0165026 0 0 0 0 0 0 1784.18 19 
70 1 C 73.916 83.16 5.768 0.492773 0.5544 0.0200015 73.916 83.16 5.768 0.492773 0.5544 0.0200015 0 0 0 0 0 0 1862.24 19 
71 1 C 74.28 83.218 7.148 0.4952 0.554787 0.0247869 74.28 83.218 7.148 0.4952 0.554787 0.0247869 0 0 0 0 0 0 1784.12 20 
72 1 C 73.294 82.999 8.157 0.488627 0.553327 0.0282858 73.294 82.999 8.157 0.488627 0.553327 0.0282858 0 0 0 0 0 0 2008.58 17 
106 1 C 71.677 82.14 1.253 0.477847 0.5476 0.00434499 71.677 82.14 1.253 0.477847 0.5476 0.00434499 0 0 0 0 0 0 2817.27 15 
107 1 C 70.943 81.446 2.262 0.472953 0.542973 0.00784387 70.943 81.446 2.262 0.472953 0.542973 0.00784387 0 0 0 0 0 0 3290.79 17 
108 1 C 71.194 81.714 3.643 0.474627 0.54476 0.0126327 71.194 81.714 3.643 0.474627 0.54476 0.0126327 0 0 0 0 0 0 3407.98 17 
110 1 C 72.612 82.723 5.396 0.48408 0.551487 0.0187116 72.612 82.723 5.396 0.48408 0.551487 0.0187116 0 0 0 0 0 0 2185.31 18 
111 1 C 71.75 82.196 6.405 0.478333 0.547973 0.0222104 71.75 82.196 6.405 0.478333 0.547973 0.0222104 0 0 0 0 0 0 2903.42 17 
112 1 C 72.052 82.406 7.786 0.480347 0.549373 0.0269993 72.052 82.406 7.786 0.480347 0.549373 0.0269993 0 0 0 0 0 0 2442.38 15 
113 1 C 71.26 81.778 8.795 0.475067 0.545187 0.0304982 71.26 81.778 8.795 0.475067 0.545187 0.0304982 0 0 0 0 0 0 3412.88 17 
5 1 C 78.848 81.533 2.103 0.525653 0.543553 0.00729251 78.848 81.533 2.103 0.525653 0.543553 0.00729251 0 0 0 0 0 0 3443.11 19 
15 1 C 77.48 82.608 0.351 0.516533 0.55072 0.00121715 77.48 82.608 0.351 0.516533 0.55072 0.00121715 0 0 0 0 0 0 2297.36 16 
16 1 C 77.796 82.42 1.731 0.51864 0.549467 0.00600254 77.796 82.42 1.731 0.51864 0.549467 0.00600254 0 0 0 0 0 0 2551.27 17 
17 1 C 76.898 82.882 2.74 0.512653 0.552547 0.00950142 76.898 82.882 2.74 0.512653 0.552547 0.00950142 0 0 0 0 0 0 2037.56 17 
18 1 C 79.087 81.253 3.484 0.527247 0.541687 0.0120814 79.087 81.253 3.484 0.527247 0.541687 0.0120814 0 0 0 0 0 0 3070.94 17 
19 1 C 78.386 81.981 4.493 0.522573 0.54654 0.0155802 78.386 81.981 4.493 0.522573 0.54654 0.0155802 0 0 0 0 0 0 3014.05 17 
20 1 C 78.657 81.732 5.874 0.52438 0.54488 0.0203691 78.657 81.732 5.874 0.52438 0.54488 0.0203691 0 0 0 0 0 0 3480.04 18 
21 1 C 77.873 82.37 6.883 0.519153 0.549133 0.023868 77.873 82.37 6.883 0.519153 0.549133 0.023868 0 0 0 0 0 0 2541.95 15 
36 1 C 75.198 83.253 0.988 0.50132 0.55502 0.00342606 75.198 83.253 0.988 0.50132 0.55502 0.00342606 0 0 0 0 0 0 1796.88 17 
37 1 C 75.564 83.222 2.369 0.50376 0.554813 0.00821491 75.564 83.222 2.369 0.50376 0.554813 0.00821491 0 0 0 0 0 0 1826.74 18 
39 1 C 77.235 82.734 4.121 0.5149 0.55156 0.0142903 77.235 82.734 4.121 0.5149 0.55156 0.0142903 0 0 0 0 0 0 2237.08 16 
40 1 C 76.287 83.084 5.13 0.50858 0.553893 0.0177892 76.287 83.084 5.13 0.50858 0.553893 0.0177892 0 0 0 0 0 0 1893.51 17 
41 1 C 76.639 82.978 6.511 0.510927 0.553187 0.022578 76.639 82.978 6.511 0.510927 0.553187 0.022578 0 0 0 0 0 0 2027.21 15 
42 1 C 75.656 83.21 7.52 0.504373 0.554733 0.0260769 75.656 83.21 7.52 0.504373 0.554733 0.0260769 0 0 0 0 0 0 1814.19 17 
43 1 C 78.172 82.155 8.264 0.521147 0.5477 0.0286568 78.172 82.155 8.264 0.521147 0.5477 0.0286568 0 0 0 0 0 0 2878.03 17 
73 1 C 76.018 83.147 8.901 0.506787 0.554313 0.0308657 76.018 83.147 8.901 0.506787 0.554313 0.0308657 0 0 0 0 0 0 1860.04 17 
330 1 C 71.279 74.123 10.335 0.475193 0.494153 0.0358384 71.279 74.123 10.335 0.475193 0.494153 0.0358384 0 0 0 0 0 0 3679.54 18 
331 1 C 72.073 73.499 11.344 0.480487 0.489993 0.0393373 72.073 73.499 11.344 0.480487 0.489993 0.0393373 0 0 0 0 0 0 2833.32 16 
333 1 C 70.783 74.666 13.097 0.471887 0.497773 0.0454161 70.783 74.666 13.097 0.471887 0.497773 0.0454161 0 0 0 0 0 0 3166.36 17 
334 1 C 70.564 74.962 14.477 0.470427 0.499747 0.0502015 70.564 74.962 14.477 0.470427 0.499747 0.0502015 0 0 0 0 0 0 2756.62 15 
335 1 C 71.213 74.187 15.486 0.474753 0.49458 0.0537004 71.213 74.187 15.486 0.474753 0.49458 0.0537004 0 0 0 0 0 0 3672.17 17 
386 1 C 73.672 72.812 9.591 0.491147 0.485413 0.0332584 73.672 72.812 9.591 0.491147 0.485413 0.0332584 0 0 0 0 0 0 2150.66 19 
387 1 C 73.318 72.912 10.972 0.488787 0.48608 0.0380473 73.318 72.912 10.972 0.488787 0.48608 0.0380473 0 0 0 0 0 0 2294.82 18 
388 1 C 74.305 72.697 11.981 0.495367 0.484647 0.0415462 74.305 72.697 11.981 0.495367 0.484647 0.0415462 0 0 0 0 0 0 2082.15 19 
389 1 C 71.771 73.708 12.725 0.478473 0.491387 0.0441261 71.771 73.708 12.725 0.478473 0.491387 0.0441261 0 0 0 0 0 0 3241.92 17 
390 1 C 72.635 73.185 13.734 0.484233 0.4879 0.047625 72.635 73.185 13.734 0.484233 0.4879 0.047625 0 0 0 0 0 0 2464.2 18 
391 1 C 72.309 73.356 15.115 0.48206 0.48904 0.0524138 72.309 73.356 15.115 0.48206 0.48904 0.0524138 0 0 0 0 0 0 2744.57 17 
392 1 C 73.231 72.941 16.124 0.488207 0.486273 0.0559127 73.231 72.941 16.124 0.488207 0.486273 0.0559127 0 0 0 0 0 0 2249.07 18 
393 1 C 70.96 74.454 16.867 0.473067 0.49636 0.0584892 70.96 74.454 16.867 0.473067 0.49636 0.0584892 0 0 0 0 0 0 3325.76 16 
394 1 C 71.697 73.763 17.876 0.47798 0.491753 0.0619881 71.697 73.763 17.876 0.47798 0.491753 0.0619881 0 0 0 0 0 0 3247.89 16 
446 1 C 73.941 72.754 13.362 0.49294 0.485027 0.046335 73.941 72.754 13.362 0.49294 0.485027 0.046335 0 0 0 0 0 0 2109.15 19 
447 1 C 74.947 72.66 14.371 0.499647 0.4844 0.0498339 74.947 72.66 14.371 0.499647 0.4844 0.0498339 0 0 0 0 0 0 2025.68 17 
448 1 C 74.58 72.672 15.752 0.4972 0.48448 0.0546228 74.58 72.672 15.752 0.4972 0.48448 0.0546228 0 0 0 0 0 0 2048.25 18 
450 1 C 72.886 73.071 17.505 0.485907 0.48714 0.0607016 72.886 73.071 17.505 0.485907 0.48714 0.0607016 0 0 0 0 0 0 2473.04 19 
442 1 C 75.039 72.661 9.22 0.50026 0.484407 0.0319719 75.039 72.661 9.22 0.50026 0.484407 0.0319719 0 0 0 0 0 0 2022.61 16 
443 1 C 76.043 72.777 10.229 0.506953 0.48518 0.0354708 76.043 72.777 10.229 0.506953 0.48518 0.0354708 0 0 0 0 0 0 2127.07 15 
444 1 C 75.681 72.712 11.609 0.50454 0.484747 0.0402562 75.681 72.712 11.609 0.50454 0.484747 0.0402562 0 0 0 0 0 0 2109.64 16 
445 1 C 76.663 72.949 12.619 0.511087 0.486327 0.0437585 76.663 72.949 12.619 0.511087 0.486327 0.0437585 0 0 0 0 0 0 2347.69 17 
449 1 C 75.59 72.7 16.761 0.503933 0.484667 0.0581216 75.59 72.7 16.761 0.503933 0.484667 0.0581216 0 0 0 0 0 0 2112.67 18 
498 1 C 77.34 73.237 9.857 0.5156 0.488247 0.0341808 77.34 73.237 9.857 0.5156 0.488247 0.0341808 0 0 0 0 0 0 2517.52 16 
499 1 C 78.192 73.779 10.866 0.52128 0.49186 0.0376797 78.192 73.779 10.866 0.52128 0.49186 0.0376797 0 0 0 0 0 0 3358.78 17 
500 1 C 77.894 73.563 12.247 0.519293 0.49042 0.0424686 77.894 73.563 12.247 0.519293 0.49042 0.0424686 0 0 0 0 0 0 2912.26 17 
501 1 C 78.675 74.205 13.256 0.5245 0.4947 0.0459674 78.675 74.205 13.256 0.5245 0.4947 0.0459674 0 0 0 0 0 0 3666.39 19 
502 1 C 76.311 72.842 13.999 0.50874 0.485613 0.0485439 76.311 72.842 13.999 0.50874 0.485613 0.0485439 0 0 0 0 0 0 2127.73 16 
503 1 C 77.257 73.196 15.008 0.515047 0.487973 0.0520428 77.257 73.196 15.008 0.515047 0.487973 0.0520428 0 0 0 0 0 0 2531.09 15 
504 1 C 76.921 73.046 16.389 0.512807 0.486973 0.0568317 76.921 73.046 16.389 0.512807 0.486973 0.0568317 0 0 0 0 0 0 2354.11 17 
505 1 C 77.818 73.512 17.398 0.518787 0.49008 0.0603305 77.818 73.512 17.398 0.518787 0.49008 0.0603305 0 0 0 0 0 0 3018.14 16 
551 1 C 79.159 74.759 10.494 0.527727 0.498393 0.0363897 79.159 74.759 10.494 0.527727 0.498393 0.0363897 0 0 0 0 0 0 3106.86 19 
555 1 C 78.405 73.954 14.637 0.5227 0.493027 0.0507563 78.405 73.954 14.637 0.5227 0.493027 0.0507563 0 0 0 0 0 0 3486.92 17 
556 1 C 79.102 74.686 15.646 0.527347 0.497907 0.0542552 79.102 74.686 15.646 0.527347 0.497907 0.0542552 0 0 0 0 0 0 2994.86 19 
557 1 C 78.865 74.404 17.027 0.525767 0.496027 0.059044 78.865 74.404 17.027 0.525767 0.496027 0.059044 0 0 0 0 0 0 3604.86 19 
163 1 C 69.963 79.794 9.432 0.46642 0.53196 0.0327071 69.963 79.794 9.432 0.46642 0.53196 0.0327071 0 0 0 0 0 0 2122.94 17 
167 1 C 70.449 80.782 13.575 0.46966 0.538547 0.0470736 70.449 80.782 13.575 0.46966 0.538547 0.0470736 0 0 0 0 0 0 2614.12 17 
217 1 C 69.658 78.452 9.06 0.464387 0.523013 0.0314171 69.658 78.452 9.06 0.464387 0.523013 0.0314171 0 0 0 0 0 0 1912.78 18 
218 1 C 69.66 77.442 10.069 0.4644 0.51628 0.034916 69.66 77.442 10.069 0.4644 0.51628 0.034916 0 0 0 0 0 0 1940.94 19 
219 1 C 70.102 80.134 10.813 0.467347 0.534227 0.0374959 70.102 80.134 10.813 0.467347 0.534227 0.0374959 0 0 0 0 0 0 2316.09 16 
220 1 C 69.777 79.177 11.822 0.46518 0.527847 0.0409948 69.777 79.177 11.822 0.46518 0.527847 0.0409948 0 0 0 0 0 0 1994.18 18 
221 1 C 69.874 79.532 13.203 0.465827 0.530213 0.0457837 69.874 79.532 13.203 0.465827 0.530213 0.0457837 0 0 0 0 0 0 2097.33 18 
222 1 C 69.667 78.543 14.212 0.464447 0.52362 0.0492825 69.667 78.543 14.212 0.464447 0.52362 0.0492825 0 0 0 0 0 0 1923.53 17 
223 1 C 70.656 81.087 14.955 0.47104 0.54058 0.051859 70.656 81.087 14.955 0.47104 0.54058 0.051859 0 0 0 0 0 0 2992.74 16 
224 1 C 70.14 80.218 15.964 0.4676 0.534787 0.0553579 70.14 80.218 15.964 0.4676 0.534787 0.0553579 0 0 0 0 0 0 2307.7 17 
225 1 C 70.308 80.545 17.345 0.46872 0.536967 0.0601468 70.308 80.545 17.345 0.46872 0.536967 0.0601468 0 0 0 0 0 0 2569.27 16 
274 1 C 69.971 76.101 9.698 0.466473 0.50734 0.0336295 69.971 76.101 9.698 0.466473 0.50734 0.0336295 0 0 0 0 0 0 2164.49 20 
275 1 C 70.414 75.193 10.707 0.469427 0.501287 0.0371284 70.414 75.193 10.707 0.469427 0.501287 0.0371284 0 0 0 0 0 0 2684.93 17 
276 1 C 69.637 77.809 11.45 0.464247 0.518727 0.0397048 69.637 77.809 11.45 0.464247 0.518727 0.0397048 0 0 0 0 0 0 1901.24 19 
277 1 C 69.762 76.806 12.459 0.46508 0.51204 0.0432037 69.762 76.806 12.459 0.46508 0.51204 0.0432037 0 0 0 0 0 0 2003.9 18 
278 1 C 69.694 77.168 13.84 0.464627 0.514453 0.0479926 69.694 77.168 13.84 0.464627 0.514453 0.0479926 0 0 0 0 0 0 1955.16 17 
279 1 C 69.94 76.188 14.849 0.466267 0.50792 0.0514914 69.94 76.188 14.849 0.466267 0.50792 0.0514914 0 0 0 0 0 0 2146.41 18 
280 1 C 69.72 78.907 15.593 0.4648 0.526047 0.0540714 69.72 78.907 15.593 0.4648 0.526047 0.0540714 0 0 0 0 0 0 1999.36 19 
281 1 C 69.635 77.901 16.602 0.464233 0.51934 0.0575703 69.635 77.901 16.602 0.464233 0.51934 0.0575703 0 0 0 0 0 0 1911.18 18 
282 1 C 69.644 78.268 17.983 0.464293 0.521787 0.0623591 69.644 78.268 17.983 0.464293 0.521787 0.0623591 0 0 0 0 0 0 1911.36 19 
332 1 C 70.233 75.513 12.087 0.46822 0.50342 0.0419137 70.233 75.513 12.087 0.46822 0.50342 0.0419137 0 0 0 0 0 0 2398.65 16 
336 1 C 69.829 76.538 16.23 0.465527 0.510253 0.0562803 69.829 76.538 16.23 0.465527 0.510253 0.0562803 0 0 0 0 0 0 2040.15 18 
337 1 C 70.191 75.595 17.239 0.46794 0.503967 0.0597792 70.191 75.595 17.239 0.46794 0.503967 0.0597792 0 0 0 0 0 0 2458.42 16 
3680 2 C 72.9524 78.2156 10.7821 0.486349 0.521437 0.0373888 72.9524 78.2156 10.7821 0.486349 0.521437 0.0373888 0 0 0 0.00146578 -0.00311222 -0.00579469 9.34743 16 