ITEM: TIMESTEP
12700000
ITEM: NUMBER OF ATOMS
5084
ITEM: BOX BOUNDS pp pp pp
0.0000000000000000e+00 1.5000000000000000e+02
0.0000000000000000e+00 1.5000000000000000e+02
0.0000000000000000e+00 2.8837799999999999e+02
ITEM: ATOMS id type element x y z xs ys zs xu yu zu xsu ysu zsu ix iy iz vx vy vz c_voro1[1] c_voro1[2] 
265 1 C 71.414 73.998 0.032 0.476093 0.49332 0.000110965 71.414 73.998 0.032 0.476093 0.49332 0.000110965 0 0 0 0 0 0 3586.07 18 
266 1 C 71.148 74.252 1.413 0.47432 0.495013 0.00489982 71.148 74.252 1.413 0.47432 0.495013 0.00489982 0 0 0 0 0 0 3567.77 19 
267 1 C 71.92 73.601 2.422 0.479467 0.490673 0.0083987 71.92 73.601 2.422 0.479467 0.490673 0.0083987 0 0 0 0 0 0 2924.14 16 
269 1 C 70.671 74.812 4.174 0.47114 0.498747 0.0144741 70.671 74.812 4.174 0.47114 0.498747 0.0144741 0 0 0 0 0 0 3010.44 18 
271 1 C 71.084 74.318 6.564 0.473893 0.495453 0.0227618 71.084 74.318 6.564 0.473893 0.495453 0.0227618 0 0 0 0 0 0 3670.39 19 
321 1 C 73.494 72.859 0.669 0.48996 0.485727 0.00231987 73.494 72.859 0.669 0.48996 0.485727 0.00231987 0 0 0 0 0 0 2182.19 17 
322 1 C 73.144 72.971 2.05 0.487627 0.486473 0.00710873 73.144 72.971 2.05 0.487627 0.486473 0.00710873 0 0 0 0 0 0 2334.72 16 
323 1 C 74.123 72.722 3.059 0.494153 0.484813 0.0106076 74.123 72.722 3.059 0.494153 0.484813 0.0106076 0 0 0 0 0 0 2075.13 16 
324 1 C 71.625 73.82 3.803 0.4775 0.492133 0.0131876 71.625 73.82 3.803 0.4775 0.492133 0.0131876 0 0 0 0 0 0 3464.98 18 
325 1 C 72.471 73.267 4.812 0.48314 0.488447 0.0166864 72.471 73.267 4.812 0.48314 0.488447 0.0166864 0 0 0 0 0 0 2578.63 18 
326 1 C 72.151 73.45 6.192 0.481007 0.489667 0.0214718 72.151 73.45 6.192 0.481007 0.489667 0.0214718 0 0 0 0 0 0 2848.73 16 
327 1 C 73.057 73.003 7.202 0.487047 0.486687 0.0249742 73.057 73.003 7.202 0.487047 0.486687 0.0249742 0 0 0 0 0 0 2336.05 17 
328 1 C 70.841 74.594 7.945 0.472273 0.497293 0.0275506 70.841 74.594 7.945 0.472273 0.497293 0.0275506 0 0 0 0 0 0 3108.37 17 
329 1 C 71.554 73.878 8.954 0.477027 0.49252 0.0310495 71.554 73.878 8.954 0.477027 0.49252 0.0310495 0 0 0 0 0 0 3397.25 17 
377 1 C 74.855 72.66 0.297 0.499033 0.4844 0.0010299 74.855 72.66 0.297 0.499033 0.4844 0.0010299 0 0 0 0 0 0 2066.82 16 
381 1 C 73.761 72.791 4.44 0.49174 0.485273 0.0153965 73.761 72.791 4.44 0.49174 0.485273 0.0153965 0 0 0 0 0 0 2161.78 17 
382 1 C 74.763 72.662 5.449 0.49842 0.484413 0.0188953 74.763 72.662 5.449 0.49842 0.484413 0.0188953 0 0 0 0 0 0 2063.95 16 
383 1 C 74.396 72.687 6.83 0.495973 0.48458 0.0236842 74.396 72.687 6.83 0.495973 0.48458 0.0236842 0 0 0 0 0 0 2062.39 16 
385 1 C 72.718 73.146 8.582 0.484787 0.48764 0.0297596 72.718 73.146 8.582 0.484787 0.48764 0.0297596 0 0 0 0 0 0 2476.51 17 
378 1 C 75.862 72.742 1.306 0.505747 0.484947 0.00452878 75.862 72.742 1.306 0.505747 0.484947 0.00452878 0 0 0 0 0 0 2092.03 18 
379 1 C 75.498 72.69 2.687 0.50332 0.4846 0.00931763 75.498 72.69 2.687 0.50332 0.4846 0.00931763 0 0 0 0 0 0 2047.32 17 
380 1 C 76.488 72.892 3.696 0.50992 0.485947 0.0128165 76.488 72.892 3.696 0.50992 0.485947 0.0128165 0 0 0 0 0 0 2283.18 20 
384 1 C 75.407 72.681 7.839 0.502713 0.48454 0.0271831 75.407 72.681 7.839 0.502713 0.48454 0.0271831 0 0 0 0 0 0 2055.74 19 
433 1 C 79.267 74.907 0.191 0.528447 0.49938 0.000662325 79.267 74.907 0.191 0.528447 0.49938 0.000662325 0 0 0 0 0 0 2804.11 16 
434 1 C 77.174 73.156 0.935 0.514493 0.487707 0.00324227 77.174 73.156 0.935 0.514493 0.487707 0.00324227 0 0 0 0 0 0 2446.04 18 
435 1 C 78.045 73.669 1.944 0.5203 0.491127 0.00674115 78.045 73.669 1.944 0.5203 0.491127 0.00674115 0 0 0 0 0 0 3139.34 17 
436 1 C 77.74 73.463 3.325 0.518267 0.489753 0.01153 77.74 73.463 3.325 0.518267 0.489753 0.01153 0 0 0 0 0 0 2804.1 19 
437 1 C 78.542 74.077 4.334 0.523613 0.493847 0.0150289 78.542 74.077 4.334 0.523613 0.493847 0.0150289 0 0 0 0 0 0 3719.19 18 
438 1 C 76.133 72.797 5.077 0.507553 0.485313 0.0176054 76.133 72.797 5.077 0.507553 0.485313 0.0176054 0 0 0 0 0 0 2125.13 18 
439 1 C 77.091 73.118 6.086 0.51394 0.487453 0.0211042 77.091 73.118 6.086 0.51394 0.487453 0.0211042 0 0 0 0 0 0 2477.95 19 
440 1 C 76.75 72.98 7.467 0.511667 0.486533 0.0258931 76.75 72.98 7.467 0.511667 0.486533 0.0258931 0 0 0 0 0 0 2301.36 18 
441 1 C 77.662 73.415 8.476 0.517747 0.489433 0.029392 77.662 73.415 8.476 0.517747 0.489433 0.029392 0 0 0 0 0 0 2850.26 16 
490 1 C 79.045 74.614 1.572 0.526967 0.497427 0.00545118 79.045 74.614 1.572 0.526967 0.497427 0.00545118 0 0 0 0 0 0 3266.11 16 
494 1 C 78.264 73.836 5.714 0.52176 0.49224 0.0198143 78.264 73.836 5.714 0.52176 0.49224 0.0198143 0 0 0 0 0 0 3304.81 16 
495 1 C 78.986 74.543 6.724 0.526573 0.496953 0.0233166 78.986 74.543 6.724 0.526573 0.496953 0.0233166 0 0 0 0 0 0 3204.35 16 
496 1 C 78.739 74.27 8.104 0.524927 0.495133 0.028102 78.739 74.27 8.104 0.524927 0.495133 0.028102 0 0 0 0 0 0 3683.12 17 
3622 2 C 73.9159 75.5257 2.613 0.492772 0.503505 0.00906102 73.9159 75.5257 2.613 0.492772 0.503505 0.00906102 0 0 0 0.025623 -0.00969298 -0.00266288 11.1118 21 
3661 2 C 71.771 78.6372 7.57055 0.478473 0.524248 0.0262522 71.771 78.6372 7.57055 0.478473 0.524248 0.0262522 0 0 0 0.0035567 0.00386741 0.0108022 9.35202 19 
105 1 C 70.029 79.965 0.51 0.46686 0.5331 0.00176851 70.029 79.965 0.51 0.46686 0.5331 0.00176851 0 0 0 0 0 0 2191.46 18 
109 1 C 70.55 80.936 4.652 0.470333 0.539573 0.0161316 70.55 80.936 4.652 0.470333 0.539573 0.0161316 0 0 0 0 0 0 2712.49 16 
154 1 C 69.678 78.635 0.138 0.46452 0.524233 0.000478539 69.678 78.635 0.138 0.46452 0.524233 0.000478539 0 0 0 0 0 0 1954.69 17 
155 1 C 69.646 77.625 1.147 0.464307 0.5175 0.00397742 69.646 77.625 1.147 0.464307 0.5175 0.00397742 0 0 0 0 0 0 1895.42 17 
156 1 C 70.18 80.301 1.891 0.467867 0.53534 0.00655737 70.18 80.301 1.891 0.467867 0.53534 0.00655737 0 0 0 0 0 0 2417.6 17 
157 1 C 69.822 79.356 2.9 0.46548 0.52904 0.0100562 69.822 79.356 2.9 0.46548 0.52904 0.0100562 0 0 0 0 0 0 2036.9 18 
158 1 C 69.931 79.707 4.281 0.466207 0.53138 0.0148451 69.931 79.707 4.281 0.466207 0.53138 0.0148451 0 0 0 0 0 0 2164.8 18 
159 1 C 69.691 78.726 5.29 0.464607 0.52484 0.018344 69.691 78.726 5.29 0.464607 0.52484 0.018344 0 0 0 0 0 0 1906.19 18 
160 1 C 70.767 81.233 6.033 0.47178 0.541553 0.0209205 70.767 81.233 6.033 0.47178 0.541553 0.0209205 0 0 0 0 0 0 3153.7 19 
161 1 C 70.221 80.383 7.042 0.46814 0.535887 0.0244193 70.221 80.383 7.042 0.46814 0.535887 0.0244193 0 0 0 0 0 0 2408.36 16 
162 1 C 70.401 80.704 8.423 0.46934 0.538027 0.0292082 70.401 80.704 8.423 0.46934 0.538027 0.0292082 0 0 0 0 0 0 2643.87 17 
209 1 C 69.91 76.275 0.775 0.466067 0.5085 0.00268744 69.91 76.275 0.775 0.466067 0.5085 0.00268744 0 0 0 0 0 0 2089.44 19 
210 1 C 70.321 75.352 1.784 0.468807 0.502347 0.00618632 70.321 75.352 1.784 0.468807 0.502347 0.00618632 0 0 0 0 0 0 2543.25 19 
211 1 C 69.635 77.993 2.528 0.464233 0.519953 0.00876627 69.635 77.993 2.528 0.464233 0.519953 0.00876627 0 0 0 0 0 0 1918.21 17 
212 1 C 69.725 76.986 3.537 0.464833 0.51324 0.0122652 69.725 76.986 3.537 0.464833 0.51324 0.0122652 0 0 0 0 0 0 1990.67 16 
213 1 C 69.67 77.35 4.918 0.464467 0.515667 0.017054 69.67 77.35 4.918 0.464467 0.515667 0.017054 0 0 0 0 0 0 1926.36 17 
214 1 C 69.881 76.362 5.927 0.465873 0.50908 0.0205529 69.881 76.362 5.927 0.465873 0.50908 0.0205529 0 0 0 0 0 0 2141.18 18 
215 1 C 69.756 79.088 6.67 0.46504 0.527253 0.0231294 69.756 79.088 6.67 0.46504 0.527253 0.0231294 0 0 0 0 0 0 2040.36 15 
216 1 C 69.636 78.085 7.679 0.46424 0.520567 0.0266282 69.636 78.085 7.679 0.46424 0.520567 0.0266282 0 0 0 0 0 0 1926.1 15 
268 1 C 70.151 75.678 3.165 0.467673 0.50452 0.0109752 70.151 75.678 3.165 0.467673 0.50452 0.0109752 0 0 0 0 0 0 2320.53 18 
270 1 C 70.463 75.115 5.555 0.469753 0.500767 0.0192629 70.463 75.115 5.555 0.469753 0.500767 0.0192629 0 0 0 0 0 0 2631.19 18 
272 1 C 69.783 76.717 7.308 0.46522 0.511447 0.0253417 69.783 76.717 7.308 0.46522 0.511447 0.0253417 0 0 0 0 0 0 1968.74 16 
273 1 C 70.112 75.761 8.317 0.467413 0.505073 0.0288406 70.112 75.761 8.317 0.467413 0.505073 0.0288406 0 0 0 0 0 0 2345.48 18 
3668 2 C 73.5406 79.8484 7.26349 0.49027 0.532323 0.0251874 73.5406 79.8484 7.26349 0.49027 0.532323 0.0251874 0 0 0 0.00403011 -0.010821 0.00151898 9.11022 17 
3643 2 C 73.4945 79.4288 4.69219 0.489964 0.529526 0.016271 73.4945 79.4288 4.69219 0.489964 0.529526 0.016271 0 0 0 -0.00343333 -0.0095778 0.00105709 9.97878 20 
3631 2 C 73.2539 79.0182 2.30439 0.488359 0.526788 0.00799088 73.2539 79.0182 2.30439 0.488359 0.526788 0.00799088 0 0 0 0.00640647 -0.00791723 0.0136328 9.1269 18 
3630 3 C 72.6688 78.2723 2.1716 0.484459 0.521815 0.00753041 72.6688 78.2723 2.1716 0.484459 0.521815 0.00753041 0 0 0 -0.00178088 0.000200678 0.00403647 5.48843 11 
3632 2 C 72.4448 78.3056 1.24159 0.482965 0.522038 0.00430544 72.4448 78.3056 1.24159 0.482965 0.522038 0.00430544 0 0 0 0.0156089 0.00206773 -0.00010745 9.85487 21 
3660 3 C 72.6511 78.4687 7.90697 0.484341 0.523125 0.0274188 72.6511 78.4687 7.90697 0.484341 0.523125 0.0274188 0 0 0 0.00399449 -0.00603759 0.00471216 5.09702 9 
3645 3 C 72.7167 77.7699 4.88947 0.484778 0.518466 0.0169551 72.7167 77.7699 4.88947 0.484778 0.518466 0.0169551 0 0 0 -0.000851251 -0.00461238 -0.00407093 7.5472 15 
3647 2 C 72.6676 77.7762 3.93356 0.484451 0.518508 0.0136403 72.6676 77.7762 3.93356 0.484451 0.518508 0.0136403 0 0 0 0.0233083 0.0182526 -0.00520365 9.53981 18 
3646 2 C 73.3463 77.0782 5.09289 0.488975 0.513854 0.0176605 73.3463 77.0782 5.09289 0.488975 0.513854 0.0176605 0 0 0 -0.0010133 -0.00501875 -0.00495691 9.96866 21 
3662 2 C 72.5353 78.3912 8.85397 0.483569 0.522608 0.0307027 72.5353 78.3912 8.85397 0.483569 0.522608 0.0307027 0 0 0 0.00614522 -0.0278763 0.00320171 9.60152 19 
3664 2 C 73.1089 76.7025 7.41162 0.487393 0.51135 0.0257011 73.1089 76.7025 7.41162 0.487393 0.51135 0.0257011 0 0 0 0.00873743 0.00508442 -0.0140955 9.96138 17 
3623 2 C 73.6124 76.8168 1.88303 0.490749 0.512112 0.00652972 73.6124 76.8168 1.88303 0.490749 0.512112 0.00652972 0 0 0 -0.00725307 -0.00893604 0.0123911 10.0184 20 
3663 3 C 73.6934 75.9722 7.6147 0.491289 0.506481 0.0264053 73.6934 75.9722 7.6147 0.491289 0.506481 0.0264053 0 0 0 -0.0042331 -0.00248623 -0.0040314 6.32867 12 
3621 3 C 73.9937 75.9479 1.75745 0.493291 0.506319 0.00609426 73.9937 75.9479 1.75745 0.493291 0.506319 0.00609426 0 0 0 0.00298856 -0.00247253 -0.00115468 5.69133 12 
3650 2 C 74.4364 75.3217 5.66535 0.496243 0.502145 0.0196456 74.4364 75.3217 5.66535 0.496243 0.502145 0.0196456 0 0 0 -0.0022547 0.00101394 -0.00550259 9.50857 20 
3648 3 C 74.4711 75.768 4.81926 0.496474 0.50512 0.0167116 74.4711 75.768 4.81926 0.496474 0.50512 0.0167116 0 0 0 -0.00451295 0.00221546 -0.00496201 5.98941 13 
5076 3 C 74.5752 80.3941 1.73807 0.497168 0.535961 0.00602706 74.5752 80.3941 290.116 0.497168 0.535961 1.00603 0 0 1 -0.00149699 0.00503684 -0.0014114 5.81218 11 
3667 2 C 74.5325 80.7037 6.50424 0.496884 0.538025 0.0225546 74.5325 80.7037 6.50424 0.496884 0.538025 0.0225546 0 0 0 -0.0176505 0.0146618 0.00202524 9.57918 18 
3666 3 C 74.3779 80.3022 7.3593 0.495853 0.535348 0.0255196 74.3779 80.3022 7.3593 0.495853 0.535348 0.0255196 0 0 0 -0.00539985 0.00669805 0.000483417 5.28548 10 
3644 2 C 73.9017 80.3422 3.55559 0.492678 0.535615 0.0123296 73.9017 80.3422 3.55559 0.492678 0.535615 0.0123296 0 0 0 0.000984488 -0.0154135 -0.00205588 8.78043 17 
3642 3 C 74.1408 80.0913 4.44783 0.494272 0.533942 0.0154236 74.1408 80.0913 4.44783 0.494272 0.533942 0.0154236 0 0 0 -0.007056 -0.00536508 0.00292044 5.72386 9 
3649 2 C 75.3669 76.1001 4.75972 0.502446 0.507334 0.0165052 75.3669 76.1001 4.75972 0.502446 0.507334 0.0165052 0 0 0 -0.000360021 -0.0105433 -0.0134715 9.20858 17 
5077 2 C 74.4716 80.7234 0.845281 0.496478 0.538156 0.00293116 74.4716 80.7234 289.223 0.496478 0.538156 1.00293 0 0 1 0.0100497 -0.00707005 -0.00721991 10.0292 21 
3665 2 C 73.6987 75.9278 8.57085 0.491325 0.506185 0.0297209 73.6987 75.9278 8.57085 0.491325 0.506185 0.0297209 0 0 0 -0.00826487 0.00799861 -0.00350976 9.964 20 
79 1 C 76.464 83.034 15.433 0.50976 0.55356 0.0535166 76.464 83.034 15.433 0.50976 0.55356 0.0535166 0 0 0 0 0 0 1975.12 18 
5078 2 C 75.3793 79.8754 1.71078 0.502528 0.532503 0.00593242 75.3793 79.8754 290.089 0.502528 0.532503 1.00593 0 0 1 -0.0195604 -0.0235324 0.00776776 10.4441 22 
3655 2 C 75.8564 79.2773 7.3808 0.50571 0.528515 0.0255942 75.8564 79.2773 7.3808 0.50571 0.528515 0.0255942 0 0 0 -0.00334524 -0.0224029 0.00743933 10.447 27 
3641 2 C 75.9247 79.6845 4.61593 0.506165 0.53123 0.0160065 75.9247 79.6845 4.61593 0.506165 0.53123 0.0160065 0 0 0 0.00310752 -0.0113422 -0.00116371 10.56 20 
3640 2 C 77.1209 79.6252 5.54188 0.51414 0.530835 0.0192174 77.1209 79.6252 5.54188 0.51414 0.530835 0.0192174 0 0 0 -0.00201961 -0.0221357 0.00474995 9.84254 19 
3639 3 C 76.8411 79.4104 4.65204 0.512274 0.529403 0.0161318 76.8411 79.4104 4.65204 0.512274 0.529403 0.0161318 0 0 0 0.00572958 -0.00274275 -0.00234752 5.82982 12 
3627 3 C 76.9806 79.1152 1.69087 0.513204 0.527435 0.00586339 76.9806 79.1152 1.69087 0.513204 0.527435 0.00586339 0 0 0 0.00169633 -0.00282258 -0.00690341 4.80166 10 
3628 2 C 77.4688 79.373 2.47285 0.516459 0.529153 0.00857503 77.4688 79.373 2.47285 0.516459 0.529153 0.00857503 0 0 0 0.0146072 -0.00873236 -0.0129986 9.90003 18 
3654 3 C 76.7893 79.0795 7.46335 0.511929 0.527197 0.0258804 76.7893 79.0795 7.46335 0.511929 0.527197 0.0258804 0 0 0 0.00208155 -5.87496e-05 -2.90795e-06 5.74363 10 
3629 2 C 77.0465 78.1605 1.67064 0.513644 0.52107 0.00579322 77.0465 78.1605 1.67064 0.513644 0.52107 0.00579322 0 0 0 -0.0205204 -0.00445727 -0.000968886 9.41658 20 
3637 2 C 76.7918 77.6024 4.54676 0.511945 0.517349 0.0157667 76.7918 77.6024 4.54676 0.511945 0.517349 0.0157667 0 0 0 -0.000816711 0.000467128 -0.00876527 10.392 23 
3653 2 C 76.7774 77.2596 7.31654 0.51185 0.515064 0.0253714 76.7774 77.2596 7.31654 0.51185 0.515064 0.0253714 0 0 0 -0.000736366 -0.00407485 0.0109704 9.65583 18 
3626 2 C 77.1491 76.4142 2.3407 0.514327 0.509428 0.00811678 77.1491 76.4142 2.3407 0.514327 0.509428 0.00811678 0 0 0 0.00737374 -0.000415243 4.27354e-05 9.07353 17 
3624 3 C 76.7704 76.3998 1.46172 0.511803 0.509332 0.00506878 76.7704 76.3998 1.46172 0.511803 0.509332 0.00506878 0 0 0 0.00221758 -0.00668222 0.00235494 5.28379 12 
3636 3 C 76.8974 76.6804 4.31207 0.512649 0.511203 0.0149528 76.8974 76.6804 4.31207 0.512649 0.511203 0.0149528 0 0 0 -0.00070053 -0.000382347 -0.00536193 5.64565 11 
3651 3 C 76.6048 76.3275 7.18359 0.510699 0.50885 0.0249103 76.6048 76.3275 7.18359 0.510699 0.50885 0.0249103 0 0 0 -0.00233745 -0.000841401 -0.0097202 6.8431 15 
3638 2 C 77.1953 76.26 5.11877 0.514635 0.5084 0.0177502 77.1953 76.26 5.11877 0.514635 0.5084 0.0177502 0 0 0 0.00158242 0.00304101 -0.00442471 9.15555 20 
3625 2 C 75.8559 76.1523 1.59844 0.505706 0.507682 0.00554285 75.8559 76.1523 1.59844 0.505706 0.507682 0.00554285 0 0 0 -1.5754e-05 0.00611226 0.0106082 10.5062 20 
3652 2 C 75.6501 76.2595 7.17191 0.504334 0.508397 0.0248698 75.6501 76.2595 7.17191 0.504334 0.508397 0.0248698 0 0 0 -0.00246606 3.90198e-05 -0.00410839 9.69544 15 
1 1 C 80.209 78.477 0.457 0.534727 0.52318 0.00158473 80.209 78.477 0.457 0.534727 0.52318 0.00158473 0 0 0 0 0 0 1930.06 19 
2 1 C 80.015 79.469 1.466 0.533433 0.529793 0.00508361 80.015 79.469 1.466 0.533433 0.529793 0.00508361 0 0 0 0 0 0 2117.3 18 
3 1 C 80.217 78.386 5.608 0.53478 0.522573 0.0194467 80.217 78.386 5.608 0.53478 0.522573 0.0194467 0 0 0 0 0 0 1921.83 19 
4 1 C 79.455 80.726 1.094 0.5297 0.538173 0.00379363 79.455 80.726 1.094 0.5297 0.538173 0.00379363 0 0 0 0 0 0 2584.5 17 
6 1 C 80.107 79.113 2.847 0.534047 0.52742 0.00987246 80.107 79.113 2.847 0.534047 0.52742 0.00987246 0 0 0 0 0 0 1980.36 16 
7 1 C 79.795 80.073 3.856 0.531967 0.53382 0.0133713 79.795 80.073 3.856 0.531967 0.53382 0.0133713 0 0 0 0 0 0 2325.51 18 
8 1 C 79.929 79.731 5.236 0.53286 0.53154 0.0181567 79.929 79.731 5.236 0.53286 0.53154 0.0181567 0 0 0 0 0 0 2095.28 16 
9 1 C 79.503 80.647 6.246 0.53002 0.537647 0.0216591 79.503 80.647 6.246 0.53002 0.537647 0.0216591 0 0 0 0 0 0 2656.38 17 
10 1 C 80.234 78.018 6.989 0.534893 0.52012 0.0242356 80.234 78.018 6.989 0.534893 0.52012 0.0242356 0 0 0 0 0 0 1912.91 18 
11 1 C 80.127 79.023 7.998 0.53418 0.52682 0.0277344 80.127 79.023 7.998 0.53418 0.52682 0.0277344 0 0 0 0 0 0 2035.3 17 
22 1 C 79.678 80.323 7.626 0.531187 0.535487 0.0264445 79.678 80.323 7.626 0.531187 0.535487 0.0264445 0 0 0 0 0 0 2344.61 16 
23 1 C 79.143 81.181 8.635 0.52762 0.541207 0.0299433 79.143 81.181 8.635 0.52762 0.541207 0.0299433 0 0 0 0 0 0 3115.75 16 
489 1 C 80.165 77.102 0.828 0.534433 0.514013 0.00287123 80.165 77.102 0.828 0.534433 0.514013 0.00287123 0 0 0 0 0 0 1962.69 18 
491 1 C 79.605 75.455 2.581 0.5307 0.503033 0.00895006 79.605 75.455 2.581 0.5307 0.503033 0.00895006 0 0 0 0 0 0 2413.37 15 
492 1 C 79.42 75.137 3.962 0.529467 0.500913 0.0137389 79.42 75.137 3.962 0.529467 0.500913 0.0137389 0 0 0 0 0 0 2717.6 17 
493 1 C 79.874 76.039 4.971 0.532493 0.506927 0.0172378 79.874 76.039 4.971 0.532493 0.506927 0.0172378 0 0 0 0 0 0 2160.77 16 
544 1 C 80.093 76.741 2.209 0.533953 0.511607 0.00766009 80.093 76.741 2.209 0.533953 0.511607 0.00766009 0 0 0 0 0 0 2054.38 16 
545 1 C 80.23 77.742 3.218 0.534867 0.51828 0.011159 80.23 77.742 3.218 0.534867 0.51828 0.011159 0 0 0 0 0 0 1915.87 20 
546 1 C 80.202 77.375 4.599 0.53468 0.515833 0.0159478 80.202 77.375 4.599 0.53468 0.515833 0.0159478 0 0 0 0 0 0 1930.9 18 
547 1 C 79.729 75.701 6.352 0.531527 0.504673 0.0220266 79.729 75.701 6.352 0.531527 0.504673 0.0220266 0 0 0 0 0 0 2373.27 17 
548 1 C 80.071 76.652 7.361 0.533807 0.511013 0.0255255 80.071 76.652 7.361 0.533807 0.511013 0.0255255 0 0 0 0 0 0 2035.36 16 
549 1 C 79.968 76.299 8.742 0.53312 0.50866 0.0303144 79.968 76.299 8.742 0.53312 0.50866 0.0303144 0 0 0 0 0 0 2157.37 19 
3656 2 C 77.0254 79.3956 8.33549 0.513503 0.529304 0.0289047 77.0254 79.3956 8.33549 0.513503 0.529304 0.0289047 0 0 0 0.00450675 0.017672 -0.00708204 10.1981 22 
50 1 C 77.718 82.469 15.805 0.51812 0.549793 0.0548065 77.718 82.469 15.805 0.51812 0.549793 0.0548065 0 0 0 0 0 0 2398.52 18 
38 1 C 74.554 83.245 3.378 0.497027 0.554967 0.0117138 74.554 83.245 3.378 0.497027 0.554967 0.0117138 0 0 0 0 0 0 1777.29 17 
65 1 C 73.826 83.142 0.616 0.492173 0.55428 0.00213609 73.826 83.142 0.616 0.492173 0.55428 0.00213609 0 0 0 0 0 0 1856.73 15 
66 1 C 72.863 82.837 1.625 0.485753 0.552247 0.00563497 72.863 82.837 1.625 0.485753 0.552247 0.00563497 0 0 0 0 0 0 2115.51 17 
67 1 C 73.206 82.969 3.006 0.48804 0.553127 0.0104238 73.206 82.969 3.006 0.48804 0.553127 0.0104238 0 0 0 0 0 0 1970.6 16 
68 1 C 72.287 82.55 4.015 0.481913 0.550333 0.0139227 72.287 82.55 4.015 0.481913 0.550333 0.0139227 0 0 0 0 0 0 2398.27 17 
69 1 C 74.922 83.259 4.759 0.49948 0.55506 0.0165026 74.922 83.259 4.759 0.49948 0.55506 0.0165026 0 0 0 0 0 0 1783.92 18 
70 1 C 73.916 83.16 5.768 0.492773 0.5544 0.0200015 73.916 83.16 5.768 0.492773 0.5544 0.0200015 0 0 0 0 0 0 1861.28 16 
71 1 C 74.28 83.218 7.148 0.4952 0.554787 0.0247869 74.28 83.218 7.148 0.4952 0.554787 0.0247869 0 0 0 0 0 0 1783.33 17 
72 1 C 73.294 82.999 8.157 0.488627 0.553327 0.0282858 73.294 82.999 8.157 0.488627 0.553327 0.0282858 0 0 0 0 0 0 2008.14 17 
106 1 C 71.677 82.14 1.253 0.477847 0.5476 0.00434499 71.677 82.14 1.253 0.477847 0.5476 0.00434499 0 0 0 0 0 0 2817.95 19 
107 1 C 70.943 81.446 2.262 0.472953 0.542973 0.00784387 70.943 81.446 2.262 0.472953 0.542973 0.00784387 0 0 0 0 0 0 3291.22 18 
108 1 C 71.194 81.714 3.643 0.474627 0.54476 0.0126327 71.194 81.714 3.643 0.474627 0.54476 0.0126327 0 0 0 0 0 0 3408.32 18 
110 1 C 72.612 82.723 5.396 0.48408 0.551487 0.0187116 72.612 82.723 5.396 0.48408 0.551487 0.0187116 0 0 0 0 0 0 2184.88 18 
111 1 C 71.75 82.196 6.405 0.478333 0.547973 0.0222104 71.75 82.196 6.405 0.478333 0.547973 0.0222104 0 0 0 0 0 0 2903.63 17 
112 1 C 72.052 82.406 7.786 0.480347 0.549373 0.0269993 72.052 82.406 7.786 0.480347 0.549373 0.0269993 0 0 0 0 0 0 2443.02 18 
113 1 C 71.26 81.778 8.795 0.475067 0.545187 0.0304982 71.26 81.778 8.795 0.475067 0.545187 0.0304982 0 0 0 0 0 0 3413.64 20 
5 1 C 78.848 81.533 2.103 0.525653 0.543553 0.00729251 78.848 81.533 2.103 0.525653 0.543553 0.00729251 0 0 0 0 0 0 3442.68 18 
15 1 C 77.48 82.608 0.351 0.516533 0.55072 0.00121715 77.48 82.608 0.351 0.516533 0.55072 0.00121715 0 0 0 0 0 0 2297.83 19 
16 1 C 77.796 82.42 1.731 0.51864 0.549467 0.00600254 77.796 82.42 1.731 0.51864 0.549467 0.00600254 0 0 0 0 0 0 2552.05 19 
17 1 C 76.898 82.882 2.74 0.512653 0.552547 0.00950142 76.898 82.882 2.74 0.512653 0.552547 0.00950142 0 0 0 0 0 0 2038.14 19 
18 1 C 79.087 81.253 3.484 0.527247 0.541687 0.0120814 79.087 81.253 3.484 0.527247 0.541687 0.0120814 0 0 0 0 0 0 3070.53 17 
19 1 C 78.386 81.981 4.493 0.522573 0.54654 0.0155802 78.386 81.981 4.493 0.522573 0.54654 0.0155802 0 0 0 0 0 0 3013.99 17 
20 1 C 78.657 81.732 5.874 0.52438 0.54488 0.0203691 78.657 81.732 5.874 0.52438 0.54488 0.0203691 0 0 0 0 0 0 3479.47 17 
21 1 C 77.873 82.37 6.883 0.519153 0.549133 0.023868 77.873 82.37 6.883 0.519153 0.549133 0.023868 0 0 0 0 0 0 2542.52 19 
36 1 C 75.198 83.253 0.988 0.50132 0.55502 0.00342606 75.198 83.253 0.988 0.50132 0.55502 0.00342606 0 0 0 0 0 0 1796.36 17 
37 1 C 75.564 83.222 2.369 0.50376 0.554813 0.00821491 75.564 83.222 2.369 0.50376 0.554813 0.00821491 0 0 0 0 0 0 1826.61 18 
39 1 C 77.235 82.734 4.121 0.5149 0.55156 0.0142903 77.235 82.734 4.121 0.5149 0.55156 0.0142903 0 0 0 0 0 0 2237.63 18 
40 1 C 76.287 83.084 5.13 0.50858 0.553893 0.0177892 76.287 83.084 5.13 0.50858 0.553893 0.0177892 0 0 0 0 0 0 1893.64 17 
41 1 C 76.639 82.978 6.511 0.510927 0.553187 0.022578 76.639 82.978 6.511 0.510927 0.553187 0.022578 0 0 0 0 0 0 2027.69 17 
42 1 C 75.656 83.21 7.52 0.504373 0.554733 0.0260769 75.656 83.21 7.52 0.504373 0.554733 0.0260769 0 0 0 0 0 0 1814.37 19 
43 1 C 78.172 82.155 8.264 0.521147 0.5477 0.0286568 78.172 82.155 8.264 0.521147 0.5477 0.0286568 0 0 0 0 0 0 2877.94 16 
73 1 C 76.018 83.147 8.901 0.506787 0.554313 0.0308657 76.018 83.147 8.901 0.506787 0.554313 0.0308657 0 0 0 0 0 0 1860.64 19 
330 1 C 71.279 74.123 10.335 0.475193 0.494153 0.0358384 71.279 74.123 10.335 0.475193 0.494153 0.0358384 0 0 0 0 0 0 3679.52 18 
331 1 C 72.073 73.499 11.344 0.480487 0.489993 0.0393373 72.073 73.499 11.344 0.480487 0.489993 0.0393373 0 0 0 0 0 0 2832.98 16 
333 1 C 70.783 74.666 13.097 0.471887 0.497773 0.0454161 70.783 74.666 13.097 0.471887 0.497773 0.0454161 0 0 0 0 0 0 3166.73 18 
334 1 C 70.564 74.962 14.477 0.470427 0.499747 0.0502015 70.564 74.962 14.477 0.470427 0.499747 0.0502015 0 0 0 0 0 0 2757.36 17 
335 1 C 71.213 74.187 15.486 0.474753 0.49458 0.0537004 71.213 74.187 15.486 0.474753 0.49458 0.0537004 0 0 0 0 0 0 3672.47 18 
386 1 C 73.672 72.812 9.591 0.491147 0.485413 0.0332584 73.672 72.812 9.591 0.491147 0.485413 0.0332584 0 0 0 0 0 0 2150.16 18 
387 1 C 73.318 72.912 10.972 0.488787 0.48608 0.0380473 73.318 72.912 10.972 0.488787 0.48608 0.0380473 0 0 0 0 0 0 2294.09 16 
388 1 C 74.305 72.697 11.981 0.495367 0.484647 0.0415462 74.305 72.697 11.981 0.495367 0.484647 0.0415462 0 0 0 0 0 0 2081.8 17 
389 1 C 71.771 73.708 12.725 0.478473 0.491387 0.0441261 71.771 73.708 12.725 0.478473 0.491387 0.0441261 0 0 0 0 0 0 3241.85 17 
390 1 C 72.635 73.185 13.734 0.484233 0.4879 0.047625 72.635 73.185 13.734 0.484233 0.4879 0.047625 0 0 0 0 0 0 2463.7 17 
391 1 C 72.309 73.356 15.115 0.48206 0.48904 0.0524138 72.309 73.356 15.115 0.48206 0.48904 0.0524138 0 0 0 0 0 0 2744.21 16 
392 1 C 73.231 72.941 16.124 0.488207 0.486273 0.0559127 73.231 72.941 16.124 0.488207 0.486273 0.0559127 0 0 0 0 0 0 2248.65 17 
393 1 C 70.96 74.454 16.867 0.473067 0.49636 0.0584892 70.96 74.454 16.867 0.473067 0.49636 0.0584892 0 0 0 0 0 0 3326.13 17 
394 1 C 71.697 73.763 17.876 0.47798 0.491753 0.0619881 71.697 73.763 17.876 0.47798 0.491753 0.0619881 0 0 0 0 0 0 3247.97 17 
446 1 C 73.941 72.754 13.362 0.49294 0.485027 0.046335 73.941 72.754 13.362 0.49294 0.485027 0.046335 0 0 0 0 0 0 2108.92 18 
447 1 C 74.947 72.66 14.371 0.499647 0.4844 0.0498339 74.947 72.66 14.371 0.499647 0.4844 0.0498339 0 0 0 0 0 0 2026.04 18 
448 1 C 74.58 72.672 15.752 0.4972 0.48448 0.0546228 74.58 72.672 15.752 0.4972 0.48448 0.0546228 0 0 0 0 0 0 2048.38 18 
450 1 C 72.886 73.071 17.505 0.485907 0.48714 0.0607016 72.886 73.071 17.505 0.485907 0.48714 0.0607016 0 0 0 0 0 0 2472.51 17 
442 1 C 75.039 72.661 9.22 0.50026 0.484407 0.0319719 75.039 72.661 9.22 0.50026 0.484407 0.0319719 0 0 0 0 0 0 2022.91 18 
443 1 C 76.043 72.777 10.229 0.506953 0.48518 0.0354708 76.043 72.777 10.229 0.506953 0.48518 0.0354708 0 0 0 0 0 0 2127.96 18 
444 1 C 75.681 72.712 11.609 0.50454 0.484747 0.0402562 75.681 72.712 11.609 0.50454 0.484747 0.0402562 0 0 0 0 0 0 2110.41 18 
445 1 C 76.663 72.949 12.619 0.511087 0.486327 0.0437585 76.663 72.949 12.619 0.511087 0.486327 0.0437585 0 0 0 0 0 0 2348.26 17 
449 1 C 75.59 72.7 16.761 0.503933 0.484667 0.0581216 75.59 72.7 16.761 0.503933 0.484667 0.0581216 0 0 0 0 0 0 2112.86 17 
498 1 C 77.34 73.237 9.857 0.5156 0.488247 0.0341808 77.34 73.237 9.857 0.5156 0.488247 0.0341808 0 0 0 0 0 0 2518.03 16 
499 1 C 78.192 73.779 10.866 0.52128 0.49186 0.0376797 78.192 73.779 10.866 0.52128 0.49186 0.0376797 0 0 0 0 0 0 3358.82 15 
500 1 C 77.894 73.563 12.247 0.519293 0.49042 0.0424686 77.894 73.563 12.247 0.519293 0.49042 0.0424686 0 0 0 0 0 0 2912.75 16 
501 1 C 78.675 74.205 13.256 0.5245 0.4947 0.0459674 78.675 74.205 13.256 0.5245 0.4947 0.0459674 0 0 0 0 0 0 3666.22 18 
502 1 C 76.311 72.842 13.999 0.50874 0.485613 0.0485439 76.311 72.842 13.999 0.50874 0.485613 0.0485439 0 0 0 0 0 0 2128.35 17 
503 1 C 77.257 73.196 15.008 0.515047 0.487973 0.0520428 77.257 73.196 15.008 0.515047 0.487973 0.0520428 0 0 0 0 0 0 2531.83 17 
504 1 C 76.921 73.046 16.389 0.512807 0.486973 0.0568317 76.921 73.046 16.389 0.512807 0.486973 0.0568317 0 0 0 0 0 0 2354.27 17 
505 1 C 77.818 73.512 17.398 0.518787 0.49008 0.0603305 77.818 73.512 17.398 0.518787 0.49008 0.0603305 0 0 0 0 0 0 3017.65 15 
551 1 C 79.159 74.759 10.494 0.527727 0.498393 0.0363897 79.159 74.759 10.494 0.527727 0.498393 0.0363897 0 0 0 0 0 0 3106.06 15 
555 1 C 78.405 73.954 14.637 0.5227 0.493027 0.0507563 78.405 73.954 14.637 0.5227 0.493027 0.0507563 0 0 0 0 0 0 3486.87 18 
556 1 C 79.102 74.686 15.646 0.527347 0.497907 0.0542552 79.102 74.686 15.646 0.527347 0.497907 0.0542552 0 0 0 0 0 0 2994.61 17 
557 1 C 78.865 74.404 17.027 0.525767 0.496027 0.059044 78.865 74.404 17.027 0.525767 0.496027 0.059044 0 0 0 0 0 0 3604.13 17 
163 1 C 69.963 79.794 9.432 0.46642 0.53196 0.0327071 69.963 79.794 9.432 0.46642 0.53196 0.0327071 0 0 0 0 0 0 2122.68 18 
167 1 C 70.449 80.782 13.575 0.46966 0.538547 0.0470736 70.449 80.782 13.575 0.46966 0.538547 0.0470736 0 0 0 0 0 0 2614.59 18 
217 1 C 69.658 78.452 9.06 0.464387 0.523013 0.0314171 69.658 78.452 9.06 0.464387 0.523013 0.0314171 0 0 0 0 0 0 1912.19 17 
218 1 C 69.66 77.442 10.069 0.4644 0.51628 0.034916 69.66 77.442 10.069 0.4644 0.51628 0.034916 0 0 0 0 0 0 1940.7 18 
219 1 C 70.102 80.134 10.813 0.467347 0.534227 0.0374959 70.102 80.134 10.813 0.467347 0.534227 0.0374959 0 0 0 0 0 0 2316.3 17 
220 1 C 69.777 79.177 11.822 0.46518 0.527847 0.0409948 69.777 79.177 11.822 0.46518 0.527847 0.0409948 0 0 0 0 0 0 1993.89 16 
221 1 C 69.874 79.532 13.203 0.465827 0.530213 0.0457837 69.874 79.532 13.203 0.465827 0.530213 0.0457837 0 0 0 0 0 0 2097.13 17 
222 1 C 69.667 78.543 14.212 0.464447 0.52362 0.0492825 69.667 78.543 14.212 0.464447 0.52362 0.0492825 0 0 0 0 0 0 1923.16 17 
223 1 C 70.656 81.087 14.955 0.47104 0.54058 0.051859 70.656 81.087 14.955 0.47104 0.54058 0.051859 0 0 0 0 0 0 2993.22 18 
224 1 C 70.14 80.218 15.964 0.4676 0.534787 0.0553579 70.14 80.218 15.964 0.4676 0.534787 0.0553579 0 0 0 0 0 0 2307.79 18 
225 1 C 70.308 80.545 17.345 0.46872 0.536967 0.0601468 70.308 80.545 17.345 0.46872 0.536967 0.0601468 0 0 0 0 0 0 2569.44 18 
274 1 C 69.971 76.101 9.698 0.466473 0.50734 0.0336295 69.971 76.101 9.698 0.466473 0.50734 0.0336295 0 0 0 0 0 0 2164.82 18 
275 1 C 70.414 75.193 10.707 0.469427 0.501287 0.0371284 70.414 75.193 10.707 0.469427 0.501287 0.0371284 0 0 0 0 0 0 2685.28 18 
276 1 C 69.637 77.809 11.45 0.464247 0.518727 0.0397048 69.637 77.809 11.45 0.464247 0.518727 0.0397048 0 0 0 0 0 0 1900.72 16 
277 1 C 69.762 76.806 12.459 0.46508 0.51204 0.0432037 69.762 76.806 12.459 0.46508 0.51204 0.0432037 0 0 0 0 0 0 2003.76 16 
278 1 C 69.694 77.168 13.84 0.464627 0.514453 0.0479926 69.694 77.168 13.84 0.464627 0.514453 0.0479926 0 0 0 0 0 0 1955.42 18 
279 1 C 69.94 76.188 14.849 0.466267 0.50792 0.0514914 69.94 76.188 14.849 0.466267 0.50792 0.0514914 0 0 0 0 0 0 2147 19 
280 1 C 69.72 78.907 15.593 0.4648 0.526047 0.0540714 69.72 78.907 15.593 0.4648 0.526047 0.0540714 0 0 0 0 0 0 1998.91 17 
281 1 C 69.635 77.901 16.602 0.464233 0.51934 0.0575703 69.635 77.901 16.602 0.464233 0.51934 0.0575703 0 0 0 0 0 0 1910.8 16 
282 1 C 69.644 78.268 17.983 0.464293 0.521787 0.0623591 69.644 78.268 17.983 0.464293 0.521787 0.0623591 0 0 0 0 0 0 1910.7 16 
332 1 C 70.233 75.513 12.087 0.46822 0.50342 0.0419137 70.233 75.513 12.087 0.46822 0.50342 0.0419137 0 0 0 0 0 0 2399.23 19 
336 1 C 69.829 76.538 16.23 0.465527 0.510253 0.0562803 69.829 76.538 16.23 0.465527 0.510253 0.0562803 0 0 0 0 0 0 2040.47 17 
337 1 C 70.191 75.595 17.239 0.46794 0.503967 0.0597792 70.191 75.595 17.239 0.46794 0.503967 0.0597792 0 0 0 0 0 0 2459.15 18 
3659 2 C 73.8171 79.4924 10.3529 0.492114 0.529949 0.0359005 73.8171 79.4924 10.3529 0.492114 0.529949 0.0359005 0 0 0 0.028545 -0.029282 -0.0105456 10.1377 24 
3706 2 C 73.3612 79.065 16.3033 0.489075 0.5271 0.0565345 73.3612 79.065 16.3033 0.489075 0.5271 0.0565345 0 0 0 -0.00933822 0.014568 -0.00850994 9.46692 20 