ITEM: TIMESTEP
3300000
ITEM: NUMBER OF ATOMS
5084
ITEM: BOX BOUNDS pp pp pp
0.0000000000000000e+00 1.5000000000000000e+02
0.0000000000000000e+00 1.5000000000000000e+02
0.0000000000000000e+00 2.8837799999999999e+02
ITEM: ATOMS id type element x y z xs ys zs xu yu zu xsu ysu zsu ix iy iz vx vy vz c_voro1[1] c_voro1[2] 
265 1 C 71.414 73.998 0.032 0.476093 0.49332 0.000110965 71.414 73.998 0.032 0.476093 0.49332 0.000110965 0 0 0 0 0 0 3585.64 16 
266 1 C 71.148 74.252 1.413 0.47432 0.495013 0.00489982 71.148 74.252 1.413 0.47432 0.495013 0.00489982 0 0 0 0 0 0 3567.55 19 
267 1 C 71.92 73.601 2.422 0.479467 0.490673 0.0083987 71.92 73.601 2.422 0.479467 0.490673 0.0083987 0 0 0 0 0 0 2924.57 17 
269 1 C 70.671 74.812 4.174 0.47114 0.498747 0.0144741 70.671 74.812 4.174 0.47114 0.498747 0.0144741 0 0 0 0 0 0 3009.94 16 
271 1 C 71.084 74.318 6.564 0.473893 0.495453 0.0227618 71.084 74.318 6.564 0.473893 0.495453 0.0227618 0 0 0 0 0 0 3670.28 17 
321 1 C 73.494 72.859 0.669 0.48996 0.485727 0.00231987 73.494 72.859 0.669 0.48996 0.485727 0.00231987 0 0 0 0 0 0 2182.59 19 
322 1 C 73.144 72.971 2.05 0.487627 0.486473 0.00710873 73.144 72.971 2.05 0.487627 0.486473 0.00710873 0 0 0 0 0 0 2335.13 16 
323 1 C 74.123 72.722 3.059 0.494153 0.484813 0.0106076 74.123 72.722 3.059 0.494153 0.484813 0.0106076 0 0 0 0 0 0 2075.14 17 
324 1 C 71.625 73.82 3.803 0.4775 0.492133 0.0131876 71.625 73.82 3.803 0.4775 0.492133 0.0131876 0 0 0 0 0 0 3464.99 19 
325 1 C 72.471 73.267 4.812 0.48314 0.488447 0.0166864 72.471 73.267 4.812 0.48314 0.488447 0.0166864 0 0 0 0 0 0 2578.91 17 
326 1 C 72.151 73.45 6.192 0.481007 0.489667 0.0214718 72.151 73.45 6.192 0.481007 0.489667 0.0214718 0 0 0 0 0 0 2849.17 20 
327 1 C 73.057 73.003 7.202 0.487047 0.486687 0.0249742 73.057 73.003 7.202 0.487047 0.486687 0.0249742 0 0 0 0 0 0 2336.43 18 
328 1 C 70.841 74.594 7.945 0.472273 0.497293 0.0275506 70.841 74.594 7.945 0.472273 0.497293 0.0275506 0 0 0 0 0 0 3108.14 17 
329 1 C 71.554 73.878 8.954 0.477027 0.49252 0.0310495 71.554 73.878 8.954 0.477027 0.49252 0.0310495 0 0 0 0 0 0 3397.35 19 
377 1 C 74.855 72.66 0.297 0.499033 0.4844 0.0010299 74.855 72.66 0.297 0.499033 0.4844 0.0010299 0 0 0 0 0 0 2066.6 17 
381 1 C 73.761 72.791 4.44 0.49174 0.485273 0.0153965 73.761 72.791 4.44 0.49174 0.485273 0.0153965 0 0 0 0 0 0 2162.24 20 
382 1 C 74.763 72.662 5.449 0.49842 0.484413 0.0188953 74.763 72.662 5.449 0.49842 0.484413 0.0188953 0 0 0 0 0 0 2064.3 17 
383 1 C 74.396 72.687 6.83 0.495973 0.48458 0.0236842 74.396 72.687 6.83 0.495973 0.48458 0.0236842 0 0 0 0 0 0 2062.4 17 
385 1 C 72.718 73.146 8.582 0.484787 0.48764 0.0297596 72.718 73.146 8.582 0.484787 0.48764 0.0297596 0 0 0 0 0 0 2476.86 19 
378 1 C 75.862 72.742 1.306 0.505747 0.484947 0.00452878 75.862 72.742 1.306 0.505747 0.484947 0.00452878 0 0 0 0 0 0 2091.35 17 
379 1 C 75.498 72.69 2.687 0.50332 0.4846 0.00931763 75.498 72.69 2.687 0.50332 0.4846 0.00931763 0 0 0 0 0 0 2046.14 15 
380 1 C 76.488 72.892 3.696 0.50992 0.485947 0.0128165 76.488 72.892 3.696 0.50992 0.485947 0.0128165 0 0 0 0 0 0 2282.28 16 
384 1 C 75.407 72.681 7.839 0.502713 0.48454 0.0271831 75.407 72.681 7.839 0.502713 0.48454 0.0271831 0 0 0 0 0 0 2054.98 16 
433 1 C 79.267 74.907 0.191 0.528447 0.49938 0.000662325 79.267 74.907 0.191 0.528447 0.49938 0.000662325 0 0 0 0 0 0 2804.79 19 
434 1 C 77.174 73.156 0.935 0.514493 0.487707 0.00324227 77.174 73.156 0.935 0.514493 0.487707 0.00324227 0 0 0 0 0 0 2445.59 17 
435 1 C 78.045 73.669 1.944 0.5203 0.491127 0.00674115 78.045 73.669 1.944 0.5203 0.491127 0.00674115 0 0 0 0 0 0 3139.45 18 
436 1 C 77.74 73.463 3.325 0.518267 0.489753 0.01153 77.74 73.463 3.325 0.518267 0.489753 0.01153 0 0 0 0 0 0 2803.78 17 
437 1 C 78.542 74.077 4.334 0.523613 0.493847 0.0150289 78.542 74.077 4.334 0.523613 0.493847 0.0150289 0 0 0 0 0 0 3719.94 20 
438 1 C 76.133 72.797 5.077 0.507553 0.485313 0.0176054 76.133 72.797 5.077 0.507553 0.485313 0.0176054 0 0 0 0 0 0 2124.88 17 
439 1 C 77.091 73.118 6.086 0.51394 0.487453 0.0211042 77.091 73.118 6.086 0.51394 0.487453 0.0211042 0 0 0 0 0 0 2477.56 16 
440 1 C 76.75 72.98 7.467 0.511667 0.486533 0.0258931 76.75 72.98 7.467 0.511667 0.486533 0.0258931 0 0 0 0 0 0 2300.99 17 
441 1 C 77.662 73.415 8.476 0.517747 0.489433 0.029392 77.662 73.415 8.476 0.517747 0.489433 0.029392 0 0 0 0 0 0 2850.18 17 
490 1 C 79.045 74.614 1.572 0.526967 0.497427 0.00545118 79.045 74.614 1.572 0.526967 0.497427 0.00545118 0 0 0 0 0 0 3266.78 18 
494 1 C 78.264 73.836 5.714 0.52176 0.49224 0.0198143 78.264 73.836 5.714 0.52176 0.49224 0.0198143 0 0 0 0 0 0 3305.42 18 
495 1 C 78.986 74.543 6.724 0.526573 0.496953 0.0233166 78.986 74.543 6.724 0.526573 0.496953 0.0233166 0 0 0 0 0 0 3205.01 19 
496 1 C 78.739 74.27 8.104 0.524927 0.495133 0.028102 78.739 74.27 8.104 0.524927 0.495133 0.028102 0 0 0 0 0 0 3683.44 18 
105 1 C 70.029 79.965 0.51 0.46686 0.5331 0.00176851 70.029 79.965 0.51 0.46686 0.5331 0.00176851 0 0 0 0 0 0 2191.37 17 
109 1 C 70.55 80.936 4.652 0.470333 0.539573 0.0161316 70.55 80.936 4.652 0.470333 0.539573 0.0161316 0 0 0 0 0 0 2711.83 16 
154 1 C 69.678 78.635 0.138 0.46452 0.524233 0.000478539 69.678 78.635 0.138 0.46452 0.524233 0.000478539 0 0 0 0 0 0 1955.36 19 
155 1 C 69.646 77.625 1.147 0.464307 0.5175 0.00397742 69.646 77.625 1.147 0.464307 0.5175 0.00397742 0 0 0 0 0 0 1895.9 18 
156 1 C 70.18 80.301 1.891 0.467867 0.53534 0.00655737 70.18 80.301 1.891 0.467867 0.53534 0.00655737 0 0 0 0 0 0 2417.41 18 
157 1 C 69.822 79.356 2.9 0.46548 0.52904 0.0100562 69.822 79.356 2.9 0.46548 0.52904 0.0100562 0 0 0 0 0 0 2037.07 18 
158 1 C 69.931 79.707 4.281 0.466207 0.53138 0.0148451 69.931 79.707 4.281 0.466207 0.53138 0.0148451 0 0 0 0 0 0 2164.46 17 
159 1 C 69.691 78.726 5.29 0.464607 0.52484 0.018344 69.691 78.726 5.29 0.464607 0.52484 0.018344 0 0 0 0 0 0 1906.18 17 
160 1 C 70.767 81.233 6.033 0.47178 0.541553 0.0209205 70.767 81.233 6.033 0.47178 0.541553 0.0209205 0 0 0 0 0 0 3153.26 18 
161 1 C 70.221 80.383 7.042 0.46814 0.535887 0.0244193 70.221 80.383 7.042 0.46814 0.535887 0.0244193 0 0 0 0 0 0 2408.81 19 
162 1 C 70.401 80.704 8.423 0.46934 0.538027 0.0292082 70.401 80.704 8.423 0.46934 0.538027 0.0292082 0 0 0 0 0 0 2643.85 16 
209 1 C 69.91 76.275 0.775 0.466067 0.5085 0.00268744 69.91 76.275 0.775 0.466067 0.5085 0.00268744 0 0 0 0 0 0 2089.07 17 
210 1 C 70.321 75.352 1.784 0.468807 0.502347 0.00618632 70.321 75.352 1.784 0.468807 0.502347 0.00618632 0 0 0 0 0 0 2542.72 17 
211 1 C 69.635 77.993 2.528 0.464233 0.519953 0.00876627 69.635 77.993 2.528 0.464233 0.519953 0.00876627 0 0 0 0 0 0 1918.51 18 
212 1 C 69.725 76.986 3.537 0.464833 0.51324 0.0122652 69.725 76.986 3.537 0.464833 0.51324 0.0122652 0 0 0 0 0 0 1990.93 18 
213 1 C 69.67 77.35 4.918 0.464467 0.515667 0.017054 69.67 77.35 4.918 0.464467 0.515667 0.017054 0 0 0 0 0 0 1926.58 17 
214 1 C 69.881 76.362 5.927 0.465873 0.50908 0.0205529 69.881 76.362 5.927 0.465873 0.50908 0.0205529 0 0 0 0 0 0 2140.8 16 
215 1 C 69.756 79.088 6.67 0.46504 0.527253 0.0231294 69.756 79.088 6.67 0.46504 0.527253 0.0231294 0 0 0 0 0 0 2041.43 19 
216 1 C 69.636 78.085 7.679 0.46424 0.520567 0.0266282 69.636 78.085 7.679 0.46424 0.520567 0.0266282 0 0 0 0 0 0 1927.16 19 
268 1 C 70.151 75.678 3.165 0.467673 0.50452 0.0109752 70.151 75.678 3.165 0.467673 0.50452 0.0109752 0 0 0 0 0 0 2319.96 17 
270 1 C 70.463 75.115 5.555 0.469753 0.500767 0.0192629 70.463 75.115 5.555 0.469753 0.500767 0.0192629 0 0 0 0 0 0 2630.62 16 
272 1 C 69.783 76.717 7.308 0.46522 0.511447 0.0253417 69.783 76.717 7.308 0.46522 0.511447 0.0253417 0 0 0 0 0 0 1968.79 18 
273 1 C 70.112 75.761 8.317 0.467413 0.505073 0.0288406 70.112 75.761 8.317 0.467413 0.505073 0.0288406 0 0 0 0 0 0 2344.61 15 
3631 2 C 74.0756 79.7942 2.09095 0.493838 0.531961 0.00725071 74.0756 79.7942 2.09095 0.493838 0.531961 0.00725071 0 0 0 -0.00140409 0.00635437 0.00898563 10.6442 20 
3661 2 C 73.1445 79.8644 7.11535 0.48763 0.532429 0.0246737 73.1445 79.8644 7.11535 0.48763 0.532429 0.0246737 0 0 0 0.00165758 -0.0149809 0.00223551 10.4925 18 
3660 3 C 73.3796 79.4864 7.96275 0.489197 0.529909 0.0276122 73.3796 79.4864 7.96275 0.489197 0.529909 0.0276122 0 0 0 0.00344936 0.00400417 0.0102145 4.9631 9 
3630 3 C 73.1495 79.5527 2.07449 0.487664 0.530352 0.00719365 73.1495 79.5527 2.07449 0.487664 0.530352 0.00719365 0 0 0 0.000138339 0.000861604 0.00299974 5.42357 11 
3632 2 C 72.8249 79.9029 1.2449 0.4855 0.532686 0.00431692 72.8249 79.9029 1.2449 0.4855 0.532686 0.00431692 0 0 0 0.0027971 0.00126591 0.0021317 9.04314 17 
3645 3 C 73.0265 79.4634 4.96688 0.486844 0.529756 0.0172235 73.0265 79.4634 4.96688 0.486844 0.529756 0.0172235 0 0 0 0.00289599 0.0035133 0.00289472 5.9273 12 
3647 2 C 72.7751 79.7663 4.09435 0.485167 0.531775 0.0141979 72.7751 79.7663 4.09435 0.485167 0.531775 0.0141979 0 0 0 0.00371716 0.00437545 0.00295737 9.59699 16 
3646 2 C 72.9005 78.515 4.93733 0.486004 0.523434 0.017121 72.9005 78.515 4.93733 0.486004 0.523434 0.017121 0 0 0 0.00582614 0.00318845 0.00088145 10.0015 20 
3664 2 C 73.0346 77.7327 7.72868 0.486897 0.518218 0.0268005 73.0346 77.7327 7.72868 0.486897 0.518218 0.0268005 0 0 0 0.018812 0.00263792 0.0380055 10.8458 25 
3623 2 C 72.9525 77.7336 2.00959 0.48635 0.518224 0.0069686 72.9525 77.7336 2.00959 0.48635 0.518224 0.0069686 0 0 0 -0.00811283 1.06411e-05 0.0153645 10.5954 22 
3622 2 C 72.8732 76.6527 3.06658 0.485821 0.511018 0.0106339 72.8732 76.6527 3.06658 0.485821 0.511018 0.0106339 0 0 0 -0.00800756 -0.0129652 0.00209916 9.63973 19 
3621 3 C 72.9849 76.784 2.12503 0.486566 0.511893 0.00736889 72.9849 76.784 2.12503 0.486566 0.511893 0.00736889 0 0 0 0.00400068 -0.00081478 0.00523561 5.70331 12 
3663 3 C 73.0147 76.7843 7.85652 0.486765 0.511896 0.0272438 73.0147 76.7843 7.85652 0.486765 0.511896 0.0272438 0 0 0 0.0008666 -0.00184924 0.00111885 5.32993 12 
3648 3 C 72.9546 76.7856 4.9642 0.486364 0.511904 0.0172142 72.9546 76.7856 4.9642 0.486364 0.511904 0.0172142 0 0 0 0.00223942 0.00719897 0.00124702 5.57996 13 
3650 2 C 72.7669 76.7723 5.90272 0.485113 0.511815 0.0204687 72.7669 76.7723 5.90272 0.485113 0.511815 0.0204687 0 0 0 0.0155687 0.0153501 0.00405391 9.67633 18 
3649 2 C 73.8312 76.4087 4.8894 0.492208 0.509391 0.0169548 73.8312 76.4087 4.8894 0.492208 0.509391 0.0169548 0 0 0 0.00166292 0.00764323 -0.00781451 10.1403 18 
3652 2 C 74.5141 75.8852 8.11442 0.496761 0.505902 0.0281381 74.5141 75.8852 8.11442 0.496761 0.505902 0.0281381 0 0 0 -0.00506912 -0.00784261 0.00751925 9.281 16 
3662 2 C 72.9867 80.0764 8.60601 0.486578 0.533843 0.0298428 72.9867 80.0764 8.60601 0.486578 0.533843 0.0298428 0 0 0 0.00113748 0.0160317 -0.00220778 10.4278 20 
3625 2 C 74.5879 75.8751 2.0789 0.497253 0.505834 0.00720894 74.5879 75.8751 2.0789 0.497253 0.505834 0.00720894 0 0 0 0.00265196 0.00191504 0.000634806 10.148 21 
3626 2 C 75.5553 74.9078 2.72728 0.503702 0.499385 0.0094573 75.5553 74.9078 2.72728 0.503702 0.499385 0.0094573 0 0 0 -0.0054101 -0.023949 -0.0259285 9.89359 21 
3624 3 C 75.4988 75.5824 2.05053 0.503326 0.503882 0.00711058 75.4988 75.5824 2.05053 0.503326 0.503882 0.00711058 0 0 0 0.00186698 -0.000185256 -0.00286247 4.55651 11 
5041 2 C 75.6086 75.4646 0.295946 0.504057 0.503097 0.00102624 75.6086 75.4646 288.674 0.504057 0.503097 1.00103 0 0 1 0.00217006 -0.00931276 -0.00526194 9.68791 20 
3651 3 C 75.3818 75.4813 8.12444 0.502546 0.503209 0.0281729 75.3818 75.4813 8.12444 0.502546 0.503209 0.0281729 0 0 0 -0.00185537 -0.00097005 0.0065949 5.94054 13 
3636 3 C 75.454 75.7034 5.29959 0.503027 0.504689 0.0183772 75.454 75.7034 5.29959 0.503027 0.504689 0.0183772 0 0 0 0.00260538 -0.00516082 0.00162554 6.92085 13 
3643 2 C 74.8799 79.8871 4.95723 0.499199 0.532581 0.0171901 74.8799 79.8871 4.95723 0.499199 0.532581 0.0171901 0 0 0 0.00425543 -0.0202059 -0.00261946 10.7344 21 
3667 2 C 75.1225 79.8674 8.01598 0.500816 0.53245 0.0277968 75.1225 79.8674 8.01598 0.500816 0.53245 0.0277968 0 0 0 0.00546914 0.00619507 0.0175722 10.2478 19 
5077 2 C 76.2753 80.3644 1.5896 0.508502 0.535763 0.00551221 76.2753 80.3644 289.968 0.508502 0.535763 1.00551 0 0 1 0.0155182 0.00209716 0.00970834 9.94991 18 
5076 3 C 75.9229 80.1415 2.45122 0.506153 0.534277 0.00850001 75.9229 80.1415 290.829 0.506153 0.534277 1.0085 0 0 1 0.00402497 -0.00229298 0.00387605 6.25958 12 
3666 3 C 76.0724 79.9746 7.96722 0.507149 0.533164 0.0276277 76.0724 79.9746 7.96722 0.507149 0.533164 0.0276277 0 0 0 0.00553023 -0.00331726 -0.00205281 5.47419 11 
3668 2 C 76.2515 80.1073 7.03633 0.508343 0.534049 0.0243997 76.2515 80.1073 7.03633 0.508343 0.534049 0.0243997 0 0 0 -0.0149111 0.0186569 -0.00282761 9.38541 18 
3644 2 C 76.1352 80.6711 4.63885 0.507568 0.537807 0.016086 76.1352 80.6711 4.63885 0.507568 0.537807 0.016086 0 0 0 -0.0112282 0.0093736 0.00901458 9.95981 22 
3642 3 C 75.7742 80.0404 5.2619 0.505162 0.533603 0.0182465 75.7742 80.0404 5.2619 0.505162 0.533603 0.0182465 0 0 0 -0.000777933 -0.00237554 0.00320036 4.48784 10 
5078 2 C 76.2249 79.2472 2.61001 0.508166 0.528315 0.00905066 76.2249 79.2472 290.988 0.508166 0.528315 1.00905 0 0 1 0.023626 0.00625736 0.0146552 10.6363 26 
3641 2 C 76.5455 78.5775 5.39002 0.510303 0.52385 0.0186908 76.5455 78.5775 5.39002 0.510303 0.52385 0.0186908 0 0 0 0.00921465 0.00906062 0.0032463 9.2788 19 
3655 2 C 76.9119 78.4469 8.20452 0.512746 0.522979 0.0284506 76.9119 78.4469 8.20452 0.512746 0.522979 0.0284506 0 0 0 -0.00344855 0.00245638 0.0130991 9.56531 20 
3639 3 C 77.1064 77.8019 5.38365 0.514043 0.518679 0.0186687 77.1064 77.8019 5.38365 0.514043 0.518679 0.0186687 0 0 0 -0.00457471 -0.0008393 -0.00294936 5.6864 11 
3654 3 C 77.0787 77.5045 8.22103 0.513858 0.516696 0.0285078 77.0787 77.5045 8.22103 0.513858 0.516696 0.0285078 0 0 0 0.000283917 0.00282549 -0.0038555 5.23522 12 
3640 2 C 77.1998 77.5657 6.30654 0.514666 0.517105 0.021869 77.1998 77.5657 6.30654 0.514666 0.517105 0.021869 0 0 0 0.00812431 0.00228685 -0.00344863 9.82071 22 
3627 3 C 77.1513 77.5848 2.60858 0.514342 0.517232 0.0090457 77.1513 77.5848 2.60858 0.514342 0.517232 0.0090457 0 0 0 -0.00134122 0.000405834 0.00329985 5.75402 9 
3628 2 C 77.3972 77.6506 3.53131 0.515981 0.517671 0.0122454 77.3972 77.6506 3.53131 0.515981 0.517671 0.0122454 0 0 0 0.00288382 -0.0171051 0.00340716 9.82239 18 
3629 2 C 76.5699 76.8254 2.56879 0.510466 0.512169 0.0089077 76.5699 76.8254 2.56879 0.510466 0.512169 0.0089077 0 0 0 -0.00238836 0.00182695 -0.00826608 10.2379 21 
3653 2 C 75.9866 76.2148 8.23618 0.506578 0.508099 0.0285604 75.9866 76.2148 8.23618 0.506578 0.508099 0.0285604 0 0 0 -0.00855316 0.00212082 0.0227476 9.38557 21 
3637 2 C 75.9852 76.4989 5.26476 0.506568 0.509992 0.0182565 75.9852 76.4989 5.26476 0.506568 0.509992 0.0182565 0 0 0 -0.014964 0.00714468 0.0138674 9.39108 20 
3638 2 C 75.3736 75.5092 6.23343 0.502491 0.503394 0.0216155 75.3736 75.5092 6.23343 0.502491 0.503394 0.0216155 0 0 0 0.0195321 -0.0297875 -0.0020694 9.77933 21 
1 1 C 80.209 78.477 0.457 0.534727 0.52318 0.00158473 80.209 78.477 0.457 0.534727 0.52318 0.00158473 0 0 0 0 0 0 1929.61 17 
2 1 C 80.015 79.469 1.466 0.533433 0.529793 0.00508361 80.015 79.469 1.466 0.533433 0.529793 0.00508361 0 0 0 0 0 0 2117.75 18 
3 1 C 80.217 78.386 5.608 0.53478 0.522573 0.0194467 80.217 78.386 5.608 0.53478 0.522573 0.0194467 0 0 0 0 0 0 1921.43 17 
4 1 C 79.455 80.726 1.094 0.5297 0.538173 0.00379363 79.455 80.726 1.094 0.5297 0.538173 0.00379363 0 0 0 0 0 0 2585.03 18 
6 1 C 80.107 79.113 2.847 0.534047 0.52742 0.00987246 80.107 79.113 2.847 0.534047 0.52742 0.00987246 0 0 0 0 0 0 1980.86 18 
7 1 C 79.795 80.073 3.856 0.531967 0.53382 0.0133713 79.795 80.073 3.856 0.531967 0.53382 0.0133713 0 0 0 0 0 0 2326.05 19 
8 1 C 79.929 79.731 5.236 0.53286 0.53154 0.0181567 79.929 79.731 5.236 0.53286 0.53154 0.0181567 0 0 0 0 0 0 2095.79 19 
9 1 C 79.503 80.647 6.246 0.53002 0.537647 0.0216591 79.503 80.647 6.246 0.53002 0.537647 0.0216591 0 0 0 0 0 0 2657.02 20 
10 1 C 80.234 78.018 6.989 0.534893 0.52012 0.0242356 80.234 78.018 6.989 0.534893 0.52012 0.0242356 0 0 0 0 0 0 1912.55 18 
11 1 C 80.127 79.023 7.998 0.53418 0.52682 0.0277344 80.127 79.023 7.998 0.53418 0.52682 0.0277344 0 0 0 0 0 0 2035.22 18 
22 1 C 79.678 80.323 7.626 0.531187 0.535487 0.0264445 79.678 80.323 7.626 0.531187 0.535487 0.0264445 0 0 0 0 0 0 2345 18 
23 1 C 79.143 81.181 8.635 0.52762 0.541207 0.0299433 79.143 81.181 8.635 0.52762 0.541207 0.0299433 0 0 0 0 0 0 3116.24 18 
489 1 C 80.165 77.102 0.828 0.534433 0.514013 0.00287123 80.165 77.102 0.828 0.534433 0.514013 0.00287123 0 0 0 0 0 0 1962.2 16 
491 1 C 79.605 75.455 2.581 0.5307 0.503033 0.00895006 79.605 75.455 2.581 0.5307 0.503033 0.00895006 0 0 0 0 0 0 2413.88 18 
492 1 C 79.42 75.137 3.962 0.529467 0.500913 0.0137389 79.42 75.137 3.962 0.529467 0.500913 0.0137389 0 0 0 0 0 0 2718.07 18 
493 1 C 79.874 76.039 4.971 0.532493 0.506927 0.0172378 79.874 76.039 4.971 0.532493 0.506927 0.0172378 0 0 0 0 0 0 2161.28 18 
544 1 C 80.093 76.741 2.209 0.533953 0.511607 0.00766009 80.093 76.741 2.209 0.533953 0.511607 0.00766009 0 0 0 0 0 0 2054.32 17 
545 1 C 80.23 77.742 3.218 0.534867 0.51828 0.011159 80.23 77.742 3.218 0.534867 0.51828 0.011159 0 0 0 0 0 0 1915.26 16 
546 1 C 80.202 77.375 4.599 0.53468 0.515833 0.0159478 80.202 77.375 4.599 0.53468 0.515833 0.0159478 0 0 0 0 0 0 1930.58 17 
547 1 C 79.729 75.701 6.352 0.531527 0.504673 0.0220266 79.729 75.701 6.352 0.531527 0.504673 0.0220266 0 0 0 0 0 0 2373.39 17 
548 1 C 80.071 76.652 7.361 0.533807 0.511013 0.0255255 80.071 76.652 7.361 0.533807 0.511013 0.0255255 0 0 0 0 0 0 2035.16 17 
549 1 C 79.968 76.299 8.742 0.53312 0.50866 0.0303144 79.968 76.299 8.742 0.53312 0.50866 0.0303144 0 0 0 0 0 0 2156.63 16 
3656 2 C 77.5009 77.3502 9.06614 0.516673 0.515668 0.0314384 77.5009 77.3502 9.06614 0.516673 0.515668 0.0314384 0 0 0 0.0114976 -0.00889999 -0.0115912 9.16493 17 
47 1 C 78.97 81.395 12.406 0.526467 0.542633 0.0430199 78.97 81.395 12.406 0.526467 0.542633 0.0430199 0 0 0 0 0 0 3205.95 17 
38 1 C 74.554 83.245 3.378 0.497027 0.554967 0.0117138 74.554 83.245 3.378 0.497027 0.554967 0.0117138 0 0 0 0 0 0 1777.65 18 
65 1 C 73.826 83.142 0.616 0.492173 0.55428 0.00213609 73.826 83.142 0.616 0.492173 0.55428 0.00213609 0 0 0 0 0 0 1857.62 18 
66 1 C 72.863 82.837 1.625 0.485753 0.552247 0.00563497 72.863 82.837 1.625 0.485753 0.552247 0.00563497 0 0 0 0 0 0 2115.78 17 
67 1 C 73.206 82.969 3.006 0.48804 0.553127 0.0104238 73.206 82.969 3.006 0.48804 0.553127 0.0104238 0 0 0 0 0 0 1971.19 18 
68 1 C 72.287 82.55 4.015 0.481913 0.550333 0.0139227 72.287 82.55 4.015 0.481913 0.550333 0.0139227 0 0 0 0 0 0 2398.47 16 
69 1 C 74.922 83.259 4.759 0.49948 0.55506 0.0165026 74.922 83.259 4.759 0.49948 0.55506 0.0165026 0 0 0 0 0 0 1783.81 16 
70 1 C 73.916 83.16 5.768 0.492773 0.5544 0.0200015 73.916 83.16 5.768 0.492773 0.5544 0.0200015 0 0 0 0 0 0 1862.08 18 
71 1 C 74.28 83.218 7.148 0.4952 0.554787 0.0247869 74.28 83.218 7.148 0.4952 0.554787 0.0247869 0 0 0 0 0 0 1784.19 19 
72 1 C 73.294 82.999 8.157 0.488627 0.553327 0.0282858 73.294 82.999 8.157 0.488627 0.553327 0.0282858 0 0 0 0 0 0 2008.46 17 
106 1 C 71.677 82.14 1.253 0.477847 0.5476 0.00434499 71.677 82.14 1.253 0.477847 0.5476 0.00434499 0 0 0 0 0 0 2817.12 15 
107 1 C 70.943 81.446 2.262 0.472953 0.542973 0.00784387 70.943 81.446 2.262 0.472953 0.542973 0.00784387 0 0 0 0 0 0 3290.68 18 
108 1 C 71.194 81.714 3.643 0.474627 0.54476 0.0126327 71.194 81.714 3.643 0.474627 0.54476 0.0126327 0 0 0 0 0 0 3407.76 17 
110 1 C 72.612 82.723 5.396 0.48408 0.551487 0.0187116 72.612 82.723 5.396 0.48408 0.551487 0.0187116 0 0 0 0 0 0 2185.11 18 
111 1 C 71.75 82.196 6.405 0.478333 0.547973 0.0222104 71.75 82.196 6.405 0.478333 0.547973 0.0222104 0 0 0 0 0 0 2903.44 16 
112 1 C 72.052 82.406 7.786 0.480347 0.549373 0.0269993 72.052 82.406 7.786 0.480347 0.549373 0.0269993 0 0 0 0 0 0 2442.75 16 
113 1 C 71.26 81.778 8.795 0.475067 0.545187 0.0304982 71.26 81.778 8.795 0.475067 0.545187 0.0304982 0 0 0 0 0 0 3412.87 16 
5 1 C 78.848 81.533 2.103 0.525653 0.543553 0.00729251 78.848 81.533 2.103 0.525653 0.543553 0.00729251 0 0 0 0 0 0 3443.11 18 
15 1 C 77.48 82.608 0.351 0.516533 0.55072 0.00121715 77.48 82.608 0.351 0.516533 0.55072 0.00121715 0 0 0 0 0 0 2297.38 17 
16 1 C 77.796 82.42 1.731 0.51864 0.549467 0.00600254 77.796 82.42 1.731 0.51864 0.549467 0.00600254 0 0 0 0 0 0 2551.3 16 
17 1 C 76.898 82.882 2.74 0.512653 0.552547 0.00950142 76.898 82.882 2.74 0.512653 0.552547 0.00950142 0 0 0 0 0 0 2037.47 17 
18 1 C 79.087 81.253 3.484 0.527247 0.541687 0.0120814 79.087 81.253 3.484 0.527247 0.541687 0.0120814 0 0 0 0 0 0 3071.16 17 
19 1 C 78.386 81.981 4.493 0.522573 0.54654 0.0155802 78.386 81.981 4.493 0.522573 0.54654 0.0155802 0 0 0 0 0 0 3013.85 15 
20 1 C 78.657 81.732 5.874 0.52438 0.54488 0.0203691 78.657 81.732 5.874 0.52438 0.54488 0.0203691 0 0 0 0 0 0 3479.9 19 
21 1 C 77.873 82.37 6.883 0.519153 0.549133 0.023868 77.873 82.37 6.883 0.519153 0.549133 0.023868 0 0 0 0 0 0 2541.96 17 
36 1 C 75.198 83.253 0.988 0.50132 0.55502 0.00342606 75.198 83.253 0.988 0.50132 0.55502 0.00342606 0 0 0 0 0 0 1796.87 17 
37 1 C 75.564 83.222 2.369 0.50376 0.554813 0.00821491 75.564 83.222 2.369 0.50376 0.554813 0.00821491 0 0 0 0 0 0 1826.61 18 
39 1 C 77.235 82.734 4.121 0.5149 0.55156 0.0142903 77.235 82.734 4.121 0.5149 0.55156 0.0142903 0 0 0 0 0 0 2236.73 16 
40 1 C 76.287 83.084 5.13 0.50858 0.553893 0.0177892 76.287 83.084 5.13 0.50858 0.553893 0.0177892 0 0 0 0 0 0 1892.9 16 
41 1 C 76.639 82.978 6.511 0.510927 0.553187 0.022578 76.639 82.978 6.511 0.510927 0.553187 0.022578 0 0 0 0 0 0 2027.47 17 
42 1 C 75.656 83.21 7.52 0.504373 0.554733 0.0260769 75.656 83.21 7.52 0.504373 0.554733 0.0260769 0 0 0 0 0 0 1814.39 17 
43 1 C 78.172 82.155 8.264 0.521147 0.5477 0.0286568 78.172 82.155 8.264 0.521147 0.5477 0.0286568 0 0 0 0 0 0 2877.81 17 
73 1 C 76.018 83.147 8.901 0.506787 0.554313 0.0308657 76.018 83.147 8.901 0.506787 0.554313 0.0308657 0 0 0 0 0 0 1860.43 17 
330 1 C 71.279 74.123 10.335 0.475193 0.494153 0.0358384 71.279 74.123 10.335 0.475193 0.494153 0.0358384 0 0 0 0 0 0 3679.76 20 
331 1 C 72.073 73.499 11.344 0.480487 0.489993 0.0393373 72.073 73.499 11.344 0.480487 0.489993 0.0393373 0 0 0 0 0 0 2833.66 18 
333 1 C 70.783 74.666 13.097 0.471887 0.497773 0.0454161 70.783 74.666 13.097 0.471887 0.497773 0.0454161 0 0 0 0 0 0 3166.46 16 
334 1 C 70.564 74.962 14.477 0.470427 0.499747 0.0502015 70.564 74.962 14.477 0.470427 0.499747 0.0502015 0 0 0 0 0 0 2756.89 16 
335 1 C 71.213 74.187 15.486 0.474753 0.49458 0.0537004 71.213 74.187 15.486 0.474753 0.49458 0.0537004 0 0 0 0 0 0 3672.5 17 
386 1 C 73.672 72.812 9.591 0.491147 0.485413 0.0332584 73.672 72.812 9.591 0.491147 0.485413 0.0332584 0 0 0 0 0 0 2150.16 18 
387 1 C 73.318 72.912 10.972 0.488787 0.48608 0.0380473 73.318 72.912 10.972 0.488787 0.48608 0.0380473 0 0 0 0 0 0 2294.43 17 
388 1 C 74.305 72.697 11.981 0.495367 0.484647 0.0415462 74.305 72.697 11.981 0.495367 0.484647 0.0415462 0 0 0 0 0 0 2081.35 15 
389 1 C 71.771 73.708 12.725 0.478473 0.491387 0.0441261 71.771 73.708 12.725 0.478473 0.491387 0.0441261 0 0 0 0 0 0 3242.17 18 
390 1 C 72.635 73.185 13.734 0.484233 0.4879 0.047625 72.635 73.185 13.734 0.484233 0.4879 0.047625 0 0 0 0 0 0 2464.23 18 
391 1 C 72.309 73.356 15.115 0.48206 0.48904 0.0524138 72.309 73.356 15.115 0.48206 0.48904 0.0524138 0 0 0 0 0 0 2744.82 20 
392 1 C 73.231 72.941 16.124 0.488207 0.486273 0.0559127 73.231 72.941 16.124 0.488207 0.486273 0.0559127 0 0 0 0 0 0 2249.12 19 
393 1 C 70.96 74.454 16.867 0.473067 0.49636 0.0584892 70.96 74.454 16.867 0.473067 0.49636 0.0584892 0 0 0 0 0 0 3325.86 17 
394 1 C 71.697 73.763 17.876 0.47798 0.491753 0.0619881 71.697 73.763 17.876 0.47798 0.491753 0.0619881 0 0 0 0 0 0 3247.9 16 
446 1 C 73.941 72.754 13.362 0.49294 0.485027 0.046335 73.941 72.754 13.362 0.49294 0.485027 0.046335 0 0 0 0 0 0 2108.98 17 
447 1 C 74.947 72.66 14.371 0.499647 0.4844 0.0498339 74.947 72.66 14.371 0.499647 0.4844 0.0498339 0 0 0 0 0 0 2025.58 16 
448 1 C 74.58 72.672 15.752 0.4972 0.48448 0.0546228 74.58 72.672 15.752 0.4972 0.48448 0.0546228 0 0 0 0 0 0 2048.01 17 
450 1 C 72.886 73.071 17.505 0.485907 0.48714 0.0607016 72.886 73.071 17.505 0.485907 0.48714 0.0607016 0 0 0 0 0 0 2473.11 17 
442 1 C 75.039 72.661 9.22 0.50026 0.484407 0.0319719 75.039 72.661 9.22 0.50026 0.484407 0.0319719 0 0 0 0 0 0 2022.2 17 
443 1 C 76.043 72.777 10.229 0.506953 0.48518 0.0354708 76.043 72.777 10.229 0.506953 0.48518 0.0354708 0 0 0 0 0 0 2127.03 16 
444 1 C 75.681 72.712 11.609 0.50454 0.484747 0.0402562 75.681 72.712 11.609 0.50454 0.484747 0.0402562 0 0 0 0 0 0 2108.97 15 
445 1 C 76.663 72.949 12.619 0.511087 0.486327 0.0437585 76.663 72.949 12.619 0.511087 0.486327 0.0437585 0 0 0 0 0 0 2347.85 16 
449 1 C 75.59 72.7 16.761 0.503933 0.484667 0.0581216 75.59 72.7 16.761 0.503933 0.484667 0.0581216 0 0 0 0 0 0 2112.67 18 
498 1 C 77.34 73.237 9.857 0.5156 0.488247 0.0341808 77.34 73.237 9.857 0.5156 0.488247 0.0341808 0 0 0 0 0 0 2518.07 20 
499 1 C 78.192 73.779 10.866 0.52128 0.49186 0.0376797 78.192 73.779 10.866 0.52128 0.49186 0.0376797 0 0 0 0 0 0 3359.28 18 
500 1 C 77.894 73.563 12.247 0.519293 0.49042 0.0424686 77.894 73.563 12.247 0.519293 0.49042 0.0424686 0 0 0 0 0 0 2912.82 18 
501 1 C 78.675 74.205 13.256 0.5245 0.4947 0.0459674 78.675 74.205 13.256 0.5245 0.4947 0.0459674 0 0 0 0 0 0 3666.63 20 
502 1 C 76.311 72.842 13.999 0.50874 0.485613 0.0485439 76.311 72.842 13.999 0.50874 0.485613 0.0485439 0 0 0 0 0 0 2128.13 17 
503 1 C 77.257 73.196 15.008 0.515047 0.487973 0.0520428 77.257 73.196 15.008 0.515047 0.487973 0.0520428 0 0 0 0 0 0 2531.73 17 
504 1 C 76.921 73.046 16.389 0.512807 0.486973 0.0568317 76.921 73.046 16.389 0.512807 0.486973 0.0568317 0 0 0 0 0 0 2354.24 17 
505 1 C 77.818 73.512 17.398 0.518787 0.49008 0.0603305 77.818 73.512 17.398 0.518787 0.49008 0.0603305 0 0 0 0 0 0 3018.08 16 
551 1 C 79.159 74.759 10.494 0.527727 0.498393 0.0363897 79.159 74.759 10.494 0.527727 0.498393 0.0363897 0 0 0 0 0 0 3106.68 16 
555 1 C 78.405 73.954 14.637 0.5227 0.493027 0.0507563 78.405 73.954 14.637 0.5227 0.493027 0.0507563 0 0 0 0 0 0 3487.44 20 
556 1 C 79.102 74.686 15.646 0.527347 0.497907 0.0542552 79.102 74.686 15.646 0.527347 0.497907 0.0542552 0 0 0 0 0 0 2995.01 20 
557 1 C 78.865 74.404 17.027 0.525767 0.496027 0.059044 78.865 74.404 17.027 0.525767 0.496027 0.059044 0 0 0 0 0 0 3604.8 19 
3670 2 C 75.3576 74.8689 11.3576 0.502384 0.499126 0.0393843 75.3576 74.8689 11.3576 0.502384 0.499126 0.0393843 0 0 0 0.00106405 -0.0070729 -0.013063 10.9036 22 
3665 2 C 72.3788 76.6502 8.55925 0.482525 0.511001 0.0296807 72.3788 76.6502 8.55925 0.482525 0.511001 0.0296807 0 0 0 0.00304013 -0.0167104 0.000234556 10.9591 20 
3710 2 C 72.7257 76.4276 17.5798 0.484838 0.509517 0.060961 72.7257 76.4276 17.5798 0.484838 0.509517 0.060961 0 0 0 -0.012422 0.00587216 -0.000246118 10.9408 20 
3679 2 C 72.8838 79.7431 11.6892 0.485892 0.531621 0.0405342 72.8838 79.7431 11.6892 0.485892 0.531621 0.0405342 0 0 0 0.0100127 -0.0036988 0.000996549 10.4722 18 
163 1 C 69.963 79.794 9.432 0.46642 0.53196 0.0327071 69.963 79.794 9.432 0.46642 0.53196 0.0327071 0 0 0 0 0 0 2122.99 17 
167 1 C 70.449 80.782 13.575 0.46966 0.538547 0.0470736 70.449 80.782 13.575 0.46966 0.538547 0.0470736 0 0 0 0 0 0 2614.42 17 
217 1 C 69.658 78.452 9.06 0.464387 0.523013 0.0314171 69.658 78.452 9.06 0.464387 0.523013 0.0314171 0 0 0 0 0 0 1912.9 18 
218 1 C 69.66 77.442 10.069 0.4644 0.51628 0.034916 69.66 77.442 10.069 0.4644 0.51628 0.034916 0 0 0 0 0 0 1940.85 17 
219 1 C 70.102 80.134 10.813 0.467347 0.534227 0.0374959 70.102 80.134 10.813 0.467347 0.534227 0.0374959 0 0 0 0 0 0 2316.26 18 
220 1 C 69.777 79.177 11.822 0.46518 0.527847 0.0409948 69.777 79.177 11.822 0.46518 0.527847 0.0409948 0 0 0 0 0 0 1994.34 17 
221 1 C 69.874 79.532 13.203 0.465827 0.530213 0.0457837 69.874 79.532 13.203 0.465827 0.530213 0.0457837 0 0 0 0 0 0 2097.29 18 
222 1 C 69.667 78.543 14.212 0.464447 0.52362 0.0492825 69.667 78.543 14.212 0.464447 0.52362 0.0492825 0 0 0 0 0 0 1923.29 17 
223 1 C 70.656 81.087 14.955 0.47104 0.54058 0.051859 70.656 81.087 14.955 0.47104 0.54058 0.051859 0 0 0 0 0 0 2992.82 16 
224 1 C 70.14 80.218 15.964 0.4676 0.534787 0.0553579 70.14 80.218 15.964 0.4676 0.534787 0.0553579 0 0 0 0 0 0 2307.93 16 
225 1 C 70.308 80.545 17.345 0.46872 0.536967 0.0601468 70.308 80.545 17.345 0.46872 0.536967 0.0601468 0 0 0 0 0 0 2569.41 16 
274 1 C 69.971 76.101 9.698 0.466473 0.50734 0.0336295 69.971 76.101 9.698 0.466473 0.50734 0.0336295 0 0 0 0 0 0 2164.13 16 
275 1 C 70.414 75.193 10.707 0.469427 0.501287 0.0371284 70.414 75.193 10.707 0.469427 0.501287 0.0371284 0 0 0 0 0 0 2684.81 17 
276 1 C 69.637 77.809 11.45 0.464247 0.518727 0.0397048 69.637 77.809 11.45 0.464247 0.518727 0.0397048 0 0 0 0 0 0 1901.11 18 
277 1 C 69.762 76.806 12.459 0.46508 0.51204 0.0432037 69.762 76.806 12.459 0.46508 0.51204 0.0432037 0 0 0 0 0 0 2003.59 18 
278 1 C 69.694 77.168 13.84 0.464627 0.514453 0.0479926 69.694 77.168 13.84 0.464627 0.514453 0.0479926 0 0 0 0 0 0 1954.9 17 
279 1 C 69.94 76.188 14.849 0.466267 0.50792 0.0514914 69.94 76.188 14.849 0.466267 0.50792 0.0514914 0 0 0 0 0 0 2146 16 
280 1 C 69.72 78.907 15.593 0.4648 0.526047 0.0540714 69.72 78.907 15.593 0.4648 0.526047 0.0540714 0 0 0 0 0 0 1999.38 19 
281 1 C 69.635 77.901 16.602 0.464233 0.51934 0.0575703 69.635 77.901 16.602 0.464233 0.51934 0.0575703 0 0 0 0 0 0 1911.3 18 
282 1 C 69.644 78.268 17.983 0.464293 0.521787 0.0623591 69.644 78.268 17.983 0.464293 0.521787 0.0623591 0 0 0 0 0 0 1911.42 19 
332 1 C 70.233 75.513 12.087 0.46822 0.50342 0.0419137 70.233 75.513 12.087 0.46822 0.50342 0.0419137 0 0 0 0 0 0 2398.51 17 
336 1 C 69.829 76.538 16.23 0.465527 0.510253 0.0562803 69.829 76.538 16.23 0.465527 0.510253 0.0562803 0 0 0 0 0 0 2040.12 18 