ITEM: TIMESTEP
13700000
ITEM: NUMBER OF ATOMS
5084
ITEM: BOX BOUNDS pp pp pp
0.0000000000000000e+00 1.5000000000000000e+02
0.0000000000000000e+00 1.5000000000000000e+02
0.0000000000000000e+00 2.8837799999999999e+02
ITEM: ATOMS id type element x y z xs ys zs xu yu zu xsu ysu zsu ix iy iz vx vy vz c_voro1[1] c_voro1[2] 
265 1 C 71.414 73.998 0.032 0.476093 0.49332 0.000110965 71.414 73.998 0.032 0.476093 0.49332 0.000110965 0 0 0 0 0 0 3585.99 19 
266 1 C 71.148 74.252 1.413 0.47432 0.495013 0.00489982 71.148 74.252 1.413 0.47432 0.495013 0.00489982 0 0 0 0 0 0 3567.96 20 
267 1 C 71.92 73.601 2.422 0.479467 0.490673 0.0083987 71.92 73.601 2.422 0.479467 0.490673 0.0083987 0 0 0 0 0 0 2924.5 16 
269 1 C 70.671 74.812 4.174 0.47114 0.498747 0.0144741 70.671 74.812 4.174 0.47114 0.498747 0.0144741 0 0 0 0 0 0 3010.34 19 
271 1 C 71.084 74.318 6.564 0.473893 0.495453 0.0227618 71.084 74.318 6.564 0.473893 0.495453 0.0227618 0 0 0 0 0 0 3670.48 18 
321 1 C 73.494 72.859 0.669 0.48996 0.485727 0.00231987 73.494 72.859 0.669 0.48996 0.485727 0.00231987 0 0 0 0 0 0 2182.13 16 
322 1 C 73.144 72.971 2.05 0.487627 0.486473 0.00710873 73.144 72.971 2.05 0.487627 0.486473 0.00710873 0 0 0 0 0 0 2335.03 17 
323 1 C 74.123 72.722 3.059 0.494153 0.484813 0.0106076 74.123 72.722 3.059 0.494153 0.484813 0.0106076 0 0 0 0 0 0 2075.32 17 
324 1 C 71.625 73.82 3.803 0.4775 0.492133 0.0131876 71.625 73.82 3.803 0.4775 0.492133 0.0131876 0 0 0 0 0 0 3465.08 19 
325 1 C 72.471 73.267 4.812 0.48314 0.488447 0.0166864 72.471 73.267 4.812 0.48314 0.488447 0.0166864 0 0 0 0 0 0 2578.36 17 
326 1 C 72.151 73.45 6.192 0.481007 0.489667 0.0214718 72.151 73.45 6.192 0.481007 0.489667 0.0214718 0 0 0 0 0 0 2848.63 16 
327 1 C 73.057 73.003 7.202 0.487047 0.486687 0.0249742 73.057 73.003 7.202 0.487047 0.486687 0.0249742 0 0 0 0 0 0 2336.01 18 
328 1 C 70.841 74.594 7.945 0.472273 0.497293 0.0275506 70.841 74.594 7.945 0.472273 0.497293 0.0275506 0 0 0 0 0 0 3108.47 17 
329 1 C 71.554 73.878 8.954 0.477027 0.49252 0.0310495 71.554 73.878 8.954 0.477027 0.49252 0.0310495 0 0 0 0 0 0 3397.74 19 
377 1 C 74.855 72.66 0.297 0.499033 0.4844 0.0010299 74.855 72.66 0.297 0.499033 0.4844 0.0010299 0 0 0 0 0 0 2066.83 17 
381 1 C 73.761 72.791 4.44 0.49174 0.485273 0.0153965 73.761 72.791 4.44 0.49174 0.485273 0.0153965 0 0 0 0 0 0 2161.57 17 
382 1 C 74.763 72.662 5.449 0.49842 0.484413 0.0188953 74.763 72.662 5.449 0.49842 0.484413 0.0188953 0 0 0 0 0 0 2063.84 15 
383 1 C 74.396 72.687 6.83 0.495973 0.48458 0.0236842 74.396 72.687 6.83 0.495973 0.48458 0.0236842 0 0 0 0 0 0 2062.25 16 
385 1 C 72.718 73.146 8.582 0.484787 0.48764 0.0297596 72.718 73.146 8.582 0.484787 0.48764 0.0297596 0 0 0 0 0 0 2476.68 18 
378 1 C 75.862 72.742 1.306 0.505747 0.484947 0.00452878 75.862 72.742 1.306 0.505747 0.484947 0.00452878 0 0 0 0 0 0 2092.08 18 
379 1 C 75.498 72.69 2.687 0.50332 0.4846 0.00931763 75.498 72.69 2.687 0.50332 0.4846 0.00931763 0 0 0 0 0 0 2047.31 18 
380 1 C 76.488 72.892 3.696 0.50992 0.485947 0.0128165 76.488 72.892 3.696 0.50992 0.485947 0.0128165 0 0 0 0 0 0 2283.09 19 
384 1 C 75.407 72.681 7.839 0.502713 0.48454 0.0271831 75.407 72.681 7.839 0.502713 0.48454 0.0271831 0 0 0 0 0 0 2055.14 16 
433 1 C 79.267 74.907 0.191 0.528447 0.49938 0.000662325 79.267 74.907 0.191 0.528447 0.49938 0.000662325 0 0 0 0 0 0 2803.95 15 
434 1 C 77.174 73.156 0.935 0.514493 0.487707 0.00324227 77.174 73.156 0.935 0.514493 0.487707 0.00324227 0 0 0 0 0 0 2446.05 18 
435 1 C 78.045 73.669 1.944 0.5203 0.491127 0.00674115 78.045 73.669 1.944 0.5203 0.491127 0.00674115 0 0 0 0 0 0 3139.44 18 
436 1 C 77.74 73.463 3.325 0.518267 0.489753 0.01153 77.74 73.463 3.325 0.518267 0.489753 0.01153 0 0 0 0 0 0 2804.08 17 
437 1 C 78.542 74.077 4.334 0.523613 0.493847 0.0150289 78.542 74.077 4.334 0.523613 0.493847 0.0150289 0 0 0 0 0 0 3719.64 19 
438 1 C 76.133 72.797 5.077 0.507553 0.485313 0.0176054 76.133 72.797 5.077 0.507553 0.485313 0.0176054 0 0 0 0 0 0 2125.1 17 
439 1 C 77.091 73.118 6.086 0.51394 0.487453 0.0211042 77.091 73.118 6.086 0.51394 0.487453 0.0211042 0 0 0 0 0 0 2478.1 19 
440 1 C 76.75 72.98 7.467 0.511667 0.486533 0.0258931 76.75 72.98 7.467 0.511667 0.486533 0.0258931 0 0 0 0 0 0 2301.42 18 
441 1 C 77.662 73.415 8.476 0.517747 0.489433 0.029392 77.662 73.415 8.476 0.517747 0.489433 0.029392 0 0 0 0 0 0 2850.5 19 
490 1 C 79.045 74.614 1.572 0.526967 0.497427 0.00545118 79.045 74.614 1.572 0.526967 0.497427 0.00545118 0 0 0 0 0 0 3266.35 18 
494 1 C 78.264 73.836 5.714 0.52176 0.49224 0.0198143 78.264 73.836 5.714 0.52176 0.49224 0.0198143 0 0 0 0 0 0 3305.02 16 
495 1 C 78.986 74.543 6.724 0.526573 0.496953 0.0233166 78.986 74.543 6.724 0.526573 0.496953 0.0233166 0 0 0 0 0 0 3204.34 17 
496 1 C 78.739 74.27 8.104 0.524927 0.495133 0.028102 78.739 74.27 8.104 0.524927 0.495133 0.028102 0 0 0 0 0 0 3683.15 18 
3661 2 C 71.7861 77.4224 7.18905 0.478574 0.516149 0.0249293 71.7861 77.4224 7.18905 0.478574 0.516149 0.0249293 0 0 0 0.00594371 -0.0152758 -0.018856 10.2657 21 
105 1 C 70.029 79.965 0.51 0.46686 0.5331 0.00176851 70.029 79.965 0.51 0.46686 0.5331 0.00176851 0 0 0 0 0 0 2191.31 16 
109 1 C 70.55 80.936 4.652 0.470333 0.539573 0.0161316 70.55 80.936 4.652 0.470333 0.539573 0.0161316 0 0 0 0 0 0 2712.55 17 
154 1 C 69.678 78.635 0.138 0.46452 0.524233 0.000478539 69.678 78.635 0.138 0.46452 0.524233 0.000478539 0 0 0 0 0 0 1954.64 16 
155 1 C 69.646 77.625 1.147 0.464307 0.5175 0.00397742 69.646 77.625 1.147 0.464307 0.5175 0.00397742 0 0 0 0 0 0 1895.25 16 
156 1 C 70.18 80.301 1.891 0.467867 0.53534 0.00655737 70.18 80.301 1.891 0.467867 0.53534 0.00655737 0 0 0 0 0 0 2417.61 17 
157 1 C 69.822 79.356 2.9 0.46548 0.52904 0.0100562 69.822 79.356 2.9 0.46548 0.52904 0.0100562 0 0 0 0 0 0 2037 18 
158 1 C 69.931 79.707 4.281 0.466207 0.53138 0.0148451 69.931 79.707 4.281 0.466207 0.53138 0.0148451 0 0 0 0 0 0 2164.89 17 
159 1 C 69.691 78.726 5.29 0.464607 0.52484 0.018344 69.691 78.726 5.29 0.464607 0.52484 0.018344 0 0 0 0 0 0 1906.35 18 
160 1 C 70.767 81.233 6.033 0.47178 0.541553 0.0209205 70.767 81.233 6.033 0.47178 0.541553 0.0209205 0 0 0 0 0 0 3153.6 19 
161 1 C 70.221 80.383 7.042 0.46814 0.535887 0.0244193 70.221 80.383 7.042 0.46814 0.535887 0.0244193 0 0 0 0 0 0 2409.05 17 
162 1 C 70.401 80.704 8.423 0.46934 0.538027 0.0292082 70.401 80.704 8.423 0.46934 0.538027 0.0292082 0 0 0 0 0 0 2644.34 20 
209 1 C 69.91 76.275 0.775 0.466067 0.5085 0.00268744 69.91 76.275 0.775 0.466067 0.5085 0.00268744 0 0 0 0 0 0 2089.34 16 
210 1 C 70.321 75.352 1.784 0.468807 0.502347 0.00618632 70.321 75.352 1.784 0.468807 0.502347 0.00618632 0 0 0 0 0 0 2543.34 19 
211 1 C 69.635 77.993 2.528 0.464233 0.519953 0.00876627 69.635 77.993 2.528 0.464233 0.519953 0.00876627 0 0 0 0 0 0 1918.19 17 
212 1 C 69.725 76.986 3.537 0.464833 0.51324 0.0122652 69.725 76.986 3.537 0.464833 0.51324 0.0122652 0 0 0 0 0 0 1990.61 16 
213 1 C 69.67 77.35 4.918 0.464467 0.515667 0.017054 69.67 77.35 4.918 0.464467 0.515667 0.017054 0 0 0 0 0 0 1926.43 17 
214 1 C 69.881 76.362 5.927 0.465873 0.50908 0.0205529 69.881 76.362 5.927 0.465873 0.50908 0.0205529 0 0 0 0 0 0 2140.62 16 
215 1 C 69.756 79.088 6.67 0.46504 0.527253 0.0231294 69.756 79.088 6.67 0.46504 0.527253 0.0231294 0 0 0 0 0 0 2040.85 16 
216 1 C 69.636 78.085 7.679 0.46424 0.520567 0.0266282 69.636 78.085 7.679 0.46424 0.520567 0.0266282 0 0 0 0 0 0 1926.32 15 
268 1 C 70.151 75.678 3.165 0.467673 0.50452 0.0109752 70.151 75.678 3.165 0.467673 0.50452 0.0109752 0 0 0 0 0 0 2320.39 18 
270 1 C 70.463 75.115 5.555 0.469753 0.500767 0.0192629 70.463 75.115 5.555 0.469753 0.500767 0.0192629 0 0 0 0 0 0 2631.22 18 
272 1 C 69.783 76.717 7.308 0.46522 0.511447 0.0253417 69.783 76.717 7.308 0.46522 0.511447 0.0253417 0 0 0 0 0 0 1967.82 15 
273 1 C 70.112 75.761 8.317 0.467413 0.505073 0.0288406 70.112 75.761 8.317 0.467413 0.505073 0.0288406 0 0 0 0 0 0 2344.97 16 
3647 2 C 72.6716 77.6796 3.45103 0.484477 0.517864 0.011967 72.6716 77.6796 3.45103 0.484477 0.517864 0.011967 0 0 0 -0.0120916 -0.00622724 -0.000102614 9.43152 16 
3630 3 C 72.5315 78.2635 1.62666 0.483544 0.521756 0.00564071 72.5315 78.2635 1.62666 0.483544 0.521756 0.00564071 0 0 0 0.0084386 -0.00155206 -0.00445053 5.88481 11 
3660 3 C 72.6751 77.5494 7.52058 0.4845 0.516996 0.0260789 72.6751 77.5494 7.52058 0.4845 0.516996 0.0260789 0 0 0 -0.00279481 0.000617902 -0.00156192 5.14383 8 
3645 3 C 72.7677 77.6144 4.40116 0.485118 0.517429 0.0152618 72.7677 77.6144 4.40116 0.485118 0.517429 0.0152618 0 0 0 0.00386285 -0.00308813 -0.00151822 7.61752 14 
3646 2 C 73.4416 76.9467 4.52895 0.48961 0.512978 0.0157049 73.4416 76.9467 4.52895 0.48961 0.512978 0.0157049 0 0 0 -0.00298369 -0.0116697 -0.0103167 9.85352 18 
3623 2 C 73.8247 76.8227 1.76407 0.492165 0.512152 0.00611723 73.8247 76.8227 1.76407 0.492165 0.512152 0.00611723 0 0 0 -0.0149281 -0.00974484 -0.00402009 10.3743 21 
3664 2 C 73.7373 76.1729 7.59909 0.491582 0.507819 0.0263512 73.7373 76.1729 7.59909 0.491582 0.507819 0.0263512 0 0 0 0.000940295 0.00500799 0.0231417 9.78889 19 
3650 2 C 74.2566 75.1529 5.41568 0.495044 0.501019 0.0187798 74.2566 75.1529 5.41568 0.495044 0.501019 0.0187798 0 0 0 0.00614151 -0.0110503 6.29641e-05 9.85284 19 
3663 3 C 74.5057 75.6021 7.60833 0.496705 0.504014 0.0263832 74.5057 75.6021 7.60833 0.496705 0.504014 0.0263832 0 0 0 -0.00324426 -0.00105313 -0.000861545 6.46431 11 
3622 2 C 74.1213 75.8516 2.88689 0.494142 0.505677 0.0100108 74.1213 75.8516 2.88689 0.494142 0.505677 0.0100108 0 0 0 0.00184345 -0.00427512 -0.00373811 9.34809 20 
3621 3 C 74.2303 75.9746 1.9439 0.494869 0.506497 0.00674082 74.2303 75.9746 1.9439 0.494869 0.506497 0.00674082 0 0 0 0.00326252 -0.00084408 -0.00312518 6.12168 12 
3648 3 C 74.5533 75.6779 4.6723 0.497022 0.504519 0.016202 74.5533 75.6779 4.6723 0.497022 0.504519 0.016202 0 0 0 0.00203153 -0.00670663 0.00149084 5.07064 12 
3632 2 C 72.2185 78.1781 0.72612 0.481457 0.521187 0.00251794 72.2185 78.1781 0.72612 0.481457 0.521187 0.00251794 0 0 0 0.0101558 0.0117374 -0.00630626 10.1006 21 
3631 2 C 73.1538 78.9902 1.59653 0.487692 0.526601 0.00553625 73.1538 78.9902 1.59653 0.487692 0.526601 0.00553625 0 0 0 0.0181544 -0.0094708 0.00489921 9.65514 21 
3668 2 C 73.3523 79.2255 7.05493 0.489015 0.52817 0.0244642 73.3523 79.2255 7.05493 0.489015 0.52817 0.0244642 0 0 0 0.00515175 -0.00296446 -0.00751013 10.1674 21 
3643 2 C 73.5045 79.3005 4.48569 0.49003 0.52867 0.0155549 73.5045 79.3005 4.48569 0.49003 0.52867 0.0155549 0 0 0 -0.00963051 -2.51267e-05 -0.0138218 10.1318 21 
3665 2 C 74.7631 75.5611 8.52935 0.498421 0.50374 0.029577 74.7631 75.5611 8.52935 0.498421 0.50374 0.029577 0 0 0 0.0296689 0.00289927 -0.0097914 9.29686 20 
3644 2 C 73.9886 80.411 3.57777 0.493257 0.536074 0.0124065 73.9886 80.411 3.57777 0.493257 0.536074 0.0124065 0 0 0 0.0320989 -0.00622636 0.000818862 9.57735 19 
3642 3 C 73.9404 80.1526 4.49817 0.492936 0.534351 0.0155982 73.9404 80.1526 4.49817 0.492936 0.534351 0.0155982 0 0 0 0.0033623 -0.00686983 -0.000835176 5.07423 10 
3667 2 C 73.7077 80.4905 6.30313 0.491384 0.536604 0.0218572 73.7077 80.4905 6.30313 0.491384 0.536604 0.0218572 0 0 0 0.00911052 -0.00220065 -0.00435351 8.91232 19 
3666 3 C 73.7761 80.0768 7.1636 0.49184 0.533845 0.024841 73.7761 80.0768 7.1636 0.49184 0.533845 0.024841 0 0 0 0.00371176 -0.00267334 -0.00415293 5.90052 16 
5076 3 C 74.3267 80.2255 1.54821 0.495511 0.534836 0.0053687 74.3267 80.2255 289.926 0.495511 0.534836 1.00537 0 0 1 0.000709851 -0.00418136 0.00230604 5.44554 12 
5077 2 C 74.491 80.5095 0.649002 0.496607 0.53673 0.00225053 74.491 80.5095 289.027 0.496607 0.53673 1.00225 0 0 1 0.00869753 0.0163897 0.0102514 9.5439 17 
3649 2 C 75.39 76.0457 4.95692 0.5026 0.506971 0.017189 75.39 76.0457 4.95692 0.5026 0.506971 0.017189 0 0 0 0.00545577 -0.0114675 -0.00243268 9.25444 19 
3662 2 C 72.6138 77.3487 8.4545 0.484092 0.515658 0.0293174 72.6138 77.3487 8.4545 0.484092 0.515658 0.0293174 0 0 0 -0.0217903 0.019692 0.00123986 9.97812 19 
5078 2 C 75.1939 80.019 1.89688 0.501293 0.53346 0.00657776 75.1939 80.019 290.275 0.501293 0.53346 1.00658 0 0 1 -0.00099284 0.00116243 0.00973369 9.25528 17 
3625 2 C 76.0766 76.1005 2.06805 0.507177 0.507336 0.00717131 76.0766 76.1005 2.06805 0.507177 0.507336 0.00717131 0 0 0 -0.0012334 0.00418147 0.0147456 10.0851 19 
3652 2 C 76.223 76.5001 7.54476 0.508153 0.510001 0.0261627 76.223 76.5001 7.54476 0.508153 0.510001 0.0261627 0 0 0 0.0070722 -0.00248162 -0.0154205 9.10365 18 
3651 3 C 77.0936 76.8156 7.78725 0.513957 0.512104 0.0270036 77.0936 76.8156 7.78725 0.513957 0.512104 0.0270036 0 0 0 0.00209932 -0.00162215 0.00137595 5.92247 12 
3626 2 C 76.961 76.6804 3.15133 0.513073 0.511202 0.0109278 76.961 76.6804 3.15133 0.513073 0.511202 0.0109278 0 0 0 -0.000120614 0.0200065 0.00538858 10.3966 21 
3624 3 C 76.7857 76.7272 2.21148 0.511905 0.511515 0.00766868 76.7857 76.7272 2.21148 0.511905 0.511515 0.00766868 0 0 0 -0.000528997 0.00566998 0.00474967 6.30475 10 
3638 2 C 77.1889 76.5269 5.8953 0.514593 0.51018 0.020443 77.1889 76.5269 5.8953 0.514593 0.51018 0.020443 0 0 0 0.00762263 -0.0034293 -0.00452207 9.12992 17 
3636 3 C 76.7966 76.8722 5.09331 0.511978 0.512481 0.0176619 76.7966 76.8722 5.09331 0.511978 0.512481 0.0176619 0 0 0 0.00822971 -0.00210541 -0.00425142 5.01097 9 
3655 2 C 75.5377 79.3826 7.62032 0.503585 0.529218 0.0264248 75.5377 79.3826 7.62032 0.503585 0.529218 0.0264248 0 0 0 0.00393759 0.0068631 -0.0239155 9.5833 21 
3641 2 C 75.6385 79.8826 4.9455 0.504257 0.532551 0.0171494 75.6385 79.8826 4.9455 0.504257 0.532551 0.0171494 0 0 0 0.0102745 0.00644994 -0.0131432 9.01671 16 
3654 3 C 76.4422 79.4545 7.92514 0.509615 0.529697 0.0274818 76.4422 79.4545 7.92514 0.509615 0.529697 0.0274818 0 0 0 -0.00317378 0.00782315 -0.00298167 5.64105 11 
3640 2 C 76.6032 79.8144 6.11027 0.510688 0.532096 0.0211884 76.6032 79.8144 6.11027 0.510688 0.532096 0.0211884 0 0 0 -0.00926717 0.0138654 0.00350674 9.49449 19 
3656 2 C 76.3759 79.8972 8.77123 0.509173 0.532648 0.0304157 76.3759 79.8972 8.77123 0.509173 0.532648 0.0304157 0 0 0 -0.0228766 0.0113765 -0.00634787 9.76153 22 
3628 2 C 76.8327 79.6224 3.30013 0.512218 0.530816 0.0114438 76.8327 79.6224 3.30013 0.512218 0.530816 0.0114438 0 0 0 -0.00406635 0.0117119 -0.00469178 9.95348 20 
3639 3 C 76.5105 79.5717 5.18901 0.51007 0.530478 0.0179938 76.5105 79.5717 5.18901 0.51007 0.530478 0.0179938 0 0 0 0.00153207 -0.00256827 0.00673729 5.63321 12 
3627 3 C 76.7531 79.5344 2.35031 0.511687 0.530229 0.0081501 76.7531 79.5344 2.35031 0.511687 0.530229 0.0081501 0 0 0 -0.000839871 -0.00124259 -0.0037571 5.57841 11 
3629 2 C 76.8755 78.5996 2.18478 0.512504 0.523997 0.0075761 76.8755 78.5996 2.18478 0.512504 0.523997 0.0075761 0 0 0 -0.0118751 -0.00520685 0.010549 10.6353 20 
3653 2 C 76.9799 77.757 7.91803 0.513199 0.51838 0.0274571 76.9799 77.757 7.91803 0.513199 0.51838 0.0274571 0 0 0 -0.00441909 -0.00405477 0.0133868 8.9788 17 
3637 2 C 76.6091 77.7892 5.29336 0.510727 0.518595 0.0183556 76.6091 77.7892 5.29336 0.510727 0.518595 0.0183556 0 0 0 -0.00141257 -0.00511976 0.000616419 10.4188 22 
1 1 C 80.209 78.477 0.457 0.534727 0.52318 0.00158473 80.209 78.477 0.457 0.534727 0.52318 0.00158473 0 0 0 0 0 0 1930.14 18 
2 1 C 80.015 79.469 1.466 0.533433 0.529793 0.00508361 80.015 79.469 1.466 0.533433 0.529793 0.00508361 0 0 0 0 0 0 2117.63 17 
3 1 C 80.217 78.386 5.608 0.53478 0.522573 0.0194467 80.217 78.386 5.608 0.53478 0.522573 0.0194467 0 0 0 0 0 0 1921.87 17 
4 1 C 79.455 80.726 1.094 0.5297 0.538173 0.00379363 79.455 80.726 1.094 0.5297 0.538173 0.00379363 0 0 0 0 0 0 2584.44 16 
6 1 C 80.107 79.113 2.847 0.534047 0.52742 0.00987246 80.107 79.113 2.847 0.534047 0.52742 0.00987246 0 0 0 0 0 0 1980.85 17 
7 1 C 79.795 80.073 3.856 0.531967 0.53382 0.0133713 79.795 80.073 3.856 0.531967 0.53382 0.0133713 0 0 0 0 0 0 2325.76 17 
8 1 C 79.929 79.731 5.236 0.53286 0.53154 0.0181567 79.929 79.731 5.236 0.53286 0.53154 0.0181567 0 0 0 0 0 0 2095.81 18 
9 1 C 79.503 80.647 6.246 0.53002 0.537647 0.0216591 79.503 80.647 6.246 0.53002 0.537647 0.0216591 0 0 0 0 0 0 2656.68 16 
10 1 C 80.234 78.018 6.989 0.534893 0.52012 0.0242356 80.234 78.018 6.989 0.534893 0.52012 0.0242356 0 0 0 0 0 0 1912.84 19 
11 1 C 80.127 79.023 7.998 0.53418 0.52682 0.0277344 80.127 79.023 7.998 0.53418 0.52682 0.0277344 0 0 0 0 0 0 2035.41 17 
22 1 C 79.678 80.323 7.626 0.531187 0.535487 0.0264445 79.678 80.323 7.626 0.531187 0.535487 0.0264445 0 0 0 0 0 0 2345.01 18 
23 1 C 79.143 81.181 8.635 0.52762 0.541207 0.0299433 79.143 81.181 8.635 0.52762 0.541207 0.0299433 0 0 0 0 0 0 3116.06 16 
489 1 C 80.165 77.102 0.828 0.534433 0.514013 0.00287123 80.165 77.102 0.828 0.534433 0.514013 0.00287123 0 0 0 0 0 0 1962.87 18 
491 1 C 79.605 75.455 2.581 0.5307 0.503033 0.00895006 79.605 75.455 2.581 0.5307 0.503033 0.00895006 0 0 0 0 0 0 2413.63 17 
492 1 C 79.42 75.137 3.962 0.529467 0.500913 0.0137389 79.42 75.137 3.962 0.529467 0.500913 0.0137389 0 0 0 0 0 0 2717.76 17 
493 1 C 79.874 76.039 4.971 0.532493 0.506927 0.0172378 79.874 76.039 4.971 0.532493 0.506927 0.0172378 0 0 0 0 0 0 2160.96 17 
544 1 C 80.093 76.741 2.209 0.533953 0.511607 0.00766009 80.093 76.741 2.209 0.533953 0.511607 0.00766009 0 0 0 0 0 0 2054.6 18 
545 1 C 80.23 77.742 3.218 0.534867 0.51828 0.011159 80.23 77.742 3.218 0.534867 0.51828 0.011159 0 0 0 0 0 0 1915.9 18 
546 1 C 80.202 77.375 4.599 0.53468 0.515833 0.0159478 80.202 77.375 4.599 0.53468 0.515833 0.0159478 0 0 0 0 0 0 1931.08 19 
547 1 C 79.729 75.701 6.352 0.531527 0.504673 0.0220266 79.729 75.701 6.352 0.531527 0.504673 0.0220266 0 0 0 0 0 0 2372.97 16 
548 1 C 80.071 76.652 7.361 0.533807 0.511013 0.0255255 80.071 76.652 7.361 0.533807 0.511013 0.0255255 0 0 0 0 0 0 2035.06 17 
549 1 C 79.968 76.299 8.742 0.53312 0.50866 0.0303144 79.968 76.299 8.742 0.53312 0.50866 0.0303144 0 0 0 0 0 0 2156.79 18 
5060 2 C 74.1615 75.6574 0.0097088 0.49441 0.504383 3.36669e-05 74.1615 75.6574 288.388 0.49441 0.504383 1.00003 0 0 1 -0.00363127 -0.0259136 -0.0106277 10.1701 17 
44 1 C 77.317 82.693 9.273 0.515447 0.551287 0.0321557 77.317 82.693 9.273 0.515447 0.551287 0.0321557 0 0 0 0 0 0 2167.23 17 
38 1 C 74.554 83.245 3.378 0.497027 0.554967 0.0117138 74.554 83.245 3.378 0.497027 0.554967 0.0117138 0 0 0 0 0 0 1777.21 16 
65 1 C 73.826 83.142 0.616 0.492173 0.55428 0.00213609 73.826 83.142 0.616 0.492173 0.55428 0.00213609 0 0 0 0 0 0 1856.91 16 
66 1 C 72.863 82.837 1.625 0.485753 0.552247 0.00563497 72.863 82.837 1.625 0.485753 0.552247 0.00563497 0 0 0 0 0 0 2115.6 17 
67 1 C 73.206 82.969 3.006 0.48804 0.553127 0.0104238 73.206 82.969 3.006 0.48804 0.553127 0.0104238 0 0 0 0 0 0 1970.6 16 
68 1 C 72.287 82.55 4.015 0.481913 0.550333 0.0139227 72.287 82.55 4.015 0.481913 0.550333 0.0139227 0 0 0 0 0 0 2398.23 16 
69 1 C 74.922 83.259 4.759 0.49948 0.55506 0.0165026 74.922 83.259 4.759 0.49948 0.55506 0.0165026 0 0 0 0 0 0 1783.95 18 
70 1 C 73.916 83.16 5.768 0.492773 0.5544 0.0200015 73.916 83.16 5.768 0.492773 0.5544 0.0200015 0 0 0 0 0 0 1861.45 16 
71 1 C 74.28 83.218 7.148 0.4952 0.554787 0.0247869 74.28 83.218 7.148 0.4952 0.554787 0.0247869 0 0 0 0 0 0 1783.75 16 
72 1 C 73.294 82.999 8.157 0.488627 0.553327 0.0282858 73.294 82.999 8.157 0.488627 0.553327 0.0282858 0 0 0 0 0 0 2008.36 17 
106 1 C 71.677 82.14 1.253 0.477847 0.5476 0.00434499 71.677 82.14 1.253 0.477847 0.5476 0.00434499 0 0 0 0 0 0 2817.86 18 
107 1 C 70.943 81.446 2.262 0.472953 0.542973 0.00784387 70.943 81.446 2.262 0.472953 0.542973 0.00784387 0 0 0 0 0 0 3291.29 19 
108 1 C 71.194 81.714 3.643 0.474627 0.54476 0.0126327 71.194 81.714 3.643 0.474627 0.54476 0.0126327 0 0 0 0 0 0 3408.38 19 
110 1 C 72.612 82.723 5.396 0.48408 0.551487 0.0187116 72.612 82.723 5.396 0.48408 0.551487 0.0187116 0 0 0 0 0 0 2184.54 17 
111 1 C 71.75 82.196 6.405 0.478333 0.547973 0.0222104 71.75 82.196 6.405 0.478333 0.547973 0.0222104 0 0 0 0 0 0 2903.21 16 
112 1 C 72.052 82.406 7.786 0.480347 0.549373 0.0269993 72.052 82.406 7.786 0.480347 0.549373 0.0269993 0 0 0 0 0 0 2442.93 17 
113 1 C 71.26 81.778 8.795 0.475067 0.545187 0.0304982 71.26 81.778 8.795 0.475067 0.545187 0.0304982 0 0 0 0 0 0 3413.15 17 
5 1 C 78.848 81.533 2.103 0.525653 0.543553 0.00729251 78.848 81.533 2.103 0.525653 0.543553 0.00729251 0 0 0 0 0 0 3442.9 18 
15 1 C 77.48 82.608 0.351 0.516533 0.55072 0.00121715 77.48 82.608 0.351 0.516533 0.55072 0.00121715 0 0 0 0 0 0 2297.67 18 
16 1 C 77.796 82.42 1.731 0.51864 0.549467 0.00600254 77.796 82.42 1.731 0.51864 0.549467 0.00600254 0 0 0 0 0 0 2551.91 18 
17 1 C 76.898 82.882 2.74 0.512653 0.552547 0.00950142 76.898 82.882 2.74 0.512653 0.552547 0.00950142 0 0 0 0 0 0 2037.9 19 
18 1 C 79.087 81.253 3.484 0.527247 0.541687 0.0120814 79.087 81.253 3.484 0.527247 0.541687 0.0120814 0 0 0 0 0 0 3070.53 17 
19 1 C 78.386 81.981 4.493 0.522573 0.54654 0.0155802 78.386 81.981 4.493 0.522573 0.54654 0.0155802 0 0 0 0 0 0 3014.09 17 
20 1 C 78.657 81.732 5.874 0.52438 0.54488 0.0203691 78.657 81.732 5.874 0.52438 0.54488 0.0203691 0 0 0 0 0 0 3479.62 17 
21 1 C 77.873 82.37 6.883 0.519153 0.549133 0.023868 77.873 82.37 6.883 0.519153 0.549133 0.023868 0 0 0 0 0 0 2542.23 17 
36 1 C 75.198 83.253 0.988 0.50132 0.55502 0.00342606 75.198 83.253 0.988 0.50132 0.55502 0.00342606 0 0 0 0 0 0 1796.57 17 
37 1 C 75.564 83.222 2.369 0.50376 0.554813 0.00821491 75.564 83.222 2.369 0.50376 0.554813 0.00821491 0 0 0 0 0 0 1826.7 17 
39 1 C 77.235 82.734 4.121 0.5149 0.55156 0.0142903 77.235 82.734 4.121 0.5149 0.55156 0.0142903 0 0 0 0 0 0 2237.51 19 
40 1 C 76.287 83.084 5.13 0.50858 0.553893 0.0177892 76.287 83.084 5.13 0.50858 0.553893 0.0177892 0 0 0 0 0 0 1893.58 18 
41 1 C 76.639 82.978 6.511 0.510927 0.553187 0.022578 76.639 82.978 6.511 0.510927 0.553187 0.022578 0 0 0 0 0 0 2027.8 19 
42 1 C 75.656 83.21 7.52 0.504373 0.554733 0.0260769 75.656 83.21 7.52 0.504373 0.554733 0.0260769 0 0 0 0 0 0 1814.79 21 
43 1 C 78.172 82.155 8.264 0.521147 0.5477 0.0286568 78.172 82.155 8.264 0.521147 0.5477 0.0286568 0 0 0 0 0 0 2877.8 16 
73 1 C 76.018 83.147 8.901 0.506787 0.554313 0.0308657 76.018 83.147 8.901 0.506787 0.554313 0.0308657 0 0 0 0 0 0 1860.59 18 
330 1 C 71.279 74.123 10.335 0.475193 0.494153 0.0358384 71.279 74.123 10.335 0.475193 0.494153 0.0358384 0 0 0 0 0 0 3679.86 20 
331 1 C 72.073 73.499 11.344 0.480487 0.489993 0.0393373 72.073 73.499 11.344 0.480487 0.489993 0.0393373 0 0 0 0 0 0 2833.55 18 
333 1 C 70.783 74.666 13.097 0.471887 0.497773 0.0454161 70.783 74.666 13.097 0.471887 0.497773 0.0454161 0 0 0 0 0 0 3166.82 18 
334 1 C 70.564 74.962 14.477 0.470427 0.499747 0.0502015 70.564 74.962 14.477 0.470427 0.499747 0.0502015 0 0 0 0 0 0 2757.58 19 
335 1 C 71.213 74.187 15.486 0.474753 0.49458 0.0537004 71.213 74.187 15.486 0.474753 0.49458 0.0537004 0 0 0 0 0 0 3672.69 20 
386 1 C 73.672 72.812 9.591 0.491147 0.485413 0.0332584 73.672 72.812 9.591 0.491147 0.485413 0.0332584 0 0 0 0 0 0 2150.06 17 
387 1 C 73.318 72.912 10.972 0.488787 0.48608 0.0380473 73.318 72.912 10.972 0.488787 0.48608 0.0380473 0 0 0 0 0 0 2294.09 16 
388 1 C 74.305 72.697 11.981 0.495367 0.484647 0.0415462 74.305 72.697 11.981 0.495367 0.484647 0.0415462 0 0 0 0 0 0 2081.43 17 
389 1 C 71.771 73.708 12.725 0.478473 0.491387 0.0441261 71.771 73.708 12.725 0.478473 0.491387 0.0441261 0 0 0 0 0 0 3242.05 20 
390 1 C 72.635 73.185 13.734 0.484233 0.4879 0.047625 72.635 73.185 13.734 0.484233 0.4879 0.047625 0 0 0 0 0 0 2463.51 16 
391 1 C 72.309 73.356 15.115 0.48206 0.48904 0.0524138 72.309 73.356 15.115 0.48206 0.48904 0.0524138 0 0 0 0 0 0 2744.39 17 
392 1 C 73.231 72.941 16.124 0.488207 0.486273 0.0559127 73.231 72.941 16.124 0.488207 0.486273 0.0559127 0 0 0 0 0 0 2248.53 17 
393 1 C 70.96 74.454 16.867 0.473067 0.49636 0.0584892 70.96 74.454 16.867 0.473067 0.49636 0.0584892 0 0 0 0 0 0 3326.01 16 
394 1 C 71.697 73.763 17.876 0.47798 0.491753 0.0619881 71.697 73.763 17.876 0.47798 0.491753 0.0619881 0 0 0 0 0 0 3247.74 15 
446 1 C 73.941 72.754 13.362 0.49294 0.485027 0.046335 73.941 72.754 13.362 0.49294 0.485027 0.046335 0 0 0 0 0 0 2108.17 16 
447 1 C 74.947 72.66 14.371 0.499647 0.4844 0.0498339 74.947 72.66 14.371 0.499647 0.4844 0.0498339 0 0 0 0 0 0 2025.28 15 
448 1 C 74.58 72.672 15.752 0.4972 0.48448 0.0546228 74.58 72.672 15.752 0.4972 0.48448 0.0546228 0 0 0 0 0 0 2048.25 18 
450 1 C 72.886 73.071 17.505 0.485907 0.48714 0.0607016 72.886 73.071 17.505 0.485907 0.48714 0.0607016 0 0 0 0 0 0 2472.18 15 
442 1 C 75.039 72.661 9.22 0.50026 0.484407 0.0319719 75.039 72.661 9.22 0.50026 0.484407 0.0319719 0 0 0 0 0 0 2022.32 17 
443 1 C 76.043 72.777 10.229 0.506953 0.48518 0.0354708 76.043 72.777 10.229 0.506953 0.48518 0.0354708 0 0 0 0 0 0 2127.62 18 
444 1 C 75.681 72.712 11.609 0.50454 0.484747 0.0402562 75.681 72.712 11.609 0.50454 0.484747 0.0402562 0 0 0 0 0 0 2109.8 18 
445 1 C 76.663 72.949 12.619 0.511087 0.486327 0.0437585 76.663 72.949 12.619 0.511087 0.486327 0.0437585 0 0 0 0 0 0 2348.29 18 
449 1 C 75.59 72.7 16.761 0.503933 0.484667 0.0581216 75.59 72.7 16.761 0.503933 0.484667 0.0581216 0 0 0 0 0 0 2113.25 19 
498 1 C 77.34 73.237 9.857 0.5156 0.488247 0.0341808 77.34 73.237 9.857 0.5156 0.488247 0.0341808 0 0 0 0 0 0 2518.33 19 
499 1 C 78.192 73.779 10.866 0.52128 0.49186 0.0376797 78.192 73.779 10.866 0.52128 0.49186 0.0376797 0 0 0 0 0 0 3359.32 17 
500 1 C 77.894 73.563 12.247 0.519293 0.49042 0.0424686 77.894 73.563 12.247 0.519293 0.49042 0.0424686 0 0 0 0 0 0 2913.01 19 
501 1 C 78.675 74.205 13.256 0.5245 0.4947 0.0459674 78.675 74.205 13.256 0.5245 0.4947 0.0459674 0 0 0 0 0 0 3666.29 19 
502 1 C 76.311 72.842 13.999 0.50874 0.485613 0.0485439 76.311 72.842 13.999 0.50874 0.485613 0.0485439 0 0 0 0 0 0 2128.26 17 
503 1 C 77.257 73.196 15.008 0.515047 0.487973 0.0520428 77.257 73.196 15.008 0.515047 0.487973 0.0520428 0 0 0 0 0 0 2532.09 19 
504 1 C 76.921 73.046 16.389 0.512807 0.486973 0.0568317 76.921 73.046 16.389 0.512807 0.486973 0.0568317 0 0 0 0 0 0 2354.76 18 
505 1 C 77.818 73.512 17.398 0.518787 0.49008 0.0603305 77.818 73.512 17.398 0.518787 0.49008 0.0603305 0 0 0 0 0 0 3018.54 18 
551 1 C 79.159 74.759 10.494 0.527727 0.498393 0.0363897 79.159 74.759 10.494 0.527727 0.498393 0.0363897 0 0 0 0 0 0 3106.01 16 
555 1 C 78.405 73.954 14.637 0.5227 0.493027 0.0507563 78.405 73.954 14.637 0.5227 0.493027 0.0507563 0 0 0 0 0 0 3486.92 19 
556 1 C 79.102 74.686 15.646 0.527347 0.497907 0.0542552 79.102 74.686 15.646 0.527347 0.497907 0.0542552 0 0 0 0 0 0 2994.49 17 
557 1 C 78.865 74.404 17.027 0.525767 0.496027 0.059044 78.865 74.404 17.027 0.525767 0.496027 0.059044 0 0 0 0 0 0 3604.29 17 
3658 2 C 73.3828 80.1302 9.10372 0.489219 0.534201 0.0315687 73.3828 80.1302 9.10372 0.489219 0.534201 0.0315687 0 0 0 -0.0120737 0.00327174 -0.00374434 9.89928 20 
3695 2 C 72.2478 78.016 14.3023 0.481652 0.520107 0.0495957 72.2478 78.016 14.3023 0.481652 0.520107 0.0495957 0 0 0 0.0224493 0.00207789 0.0132487 10.0137 19 
3707 2 C 72.2769 78.4517 17.2797 0.481846 0.523011 0.0599203 72.2769 78.4517 17.2797 0.481846 0.523011 0.0599203 0 0 0 0.00666052 0.00329119 0.00169895 9.26805 20 
163 1 C 69.963 79.794 9.432 0.46642 0.53196 0.0327071 69.963 79.794 9.432 0.46642 0.53196 0.0327071 0 0 0 0 0 0 2123.13 20 
167 1 C 70.449 80.782 13.575 0.46966 0.538547 0.0470736 70.449 80.782 13.575 0.46966 0.538547 0.0470736 0 0 0 0 0 0 2614.75 17 
217 1 C 69.658 78.452 9.06 0.464387 0.523013 0.0314171 69.658 78.452 9.06 0.464387 0.523013 0.0314171 0 0 0 0 0 0 1912.68 18 
218 1 C 69.66 77.442 10.069 0.4644 0.51628 0.034916 69.66 77.442 10.069 0.4644 0.51628 0.034916 0 0 0 0 0 0 1940.62 17 
219 1 C 70.102 80.134 10.813 0.467347 0.534227 0.0374959 70.102 80.134 10.813 0.467347 0.534227 0.0374959 0 0 0 0 0 0 2316.77 21 
220 1 C 69.777 79.177 11.822 0.46518 0.527847 0.0409948 69.777 79.177 11.822 0.46518 0.527847 0.0409948 0 0 0 0 0 0 1994.48 18 
221 1 C 69.874 79.532 13.203 0.465827 0.530213 0.0457837 69.874 79.532 13.203 0.465827 0.530213 0.0457837 0 0 0 0 0 0 2097.21 18 
222 1 C 69.667 78.543 14.212 0.464447 0.52362 0.0492825 69.667 78.543 14.212 0.464447 0.52362 0.0492825 0 0 0 0 0 0 1922.78 15 
223 1 C 70.656 81.087 14.955 0.47104 0.54058 0.051859 70.656 81.087 14.955 0.47104 0.54058 0.051859 0 0 0 0 0 0 2993.52 19 
224 1 C 70.14 80.218 15.964 0.4676 0.534787 0.0553579 70.14 80.218 15.964 0.4676 0.534787 0.0553579 0 0 0 0 0 0 2307.88 18 
225 1 C 70.308 80.545 17.345 0.46872 0.536967 0.0601468 70.308 80.545 17.345 0.46872 0.536967 0.0601468 0 0 0 0 0 0 2569.43 17 
274 1 C 69.971 76.101 9.698 0.466473 0.50734 0.0336295 69.971 76.101 9.698 0.466473 0.50734 0.0336295 0 0 0 0 0 0 2164.43 18 
275 1 C 70.414 75.193 10.707 0.469427 0.501287 0.0371284 70.414 75.193 10.707 0.469427 0.501287 0.0371284 0 0 0 0 0 0 2684.95 17 
276 1 C 69.637 77.809 11.45 0.464247 0.518727 0.0397048 69.637 77.809 11.45 0.464247 0.518727 0.0397048 0 0 0 0 0 0 1900.62 16 
277 1 C 69.762 76.806 12.459 0.46508 0.51204 0.0432037 69.762 76.806 12.459 0.46508 0.51204 0.0432037 0 0 0 0 0 0 2003.42 17 
278 1 C 69.694 77.168 13.84 0.464627 0.514453 0.0479926 69.694 77.168 13.84 0.464627 0.514453 0.0479926 0 0 0 0 0 0 1954.84 16 
279 1 C 69.94 76.188 14.849 0.466267 0.50792 0.0514914 69.94 76.188 14.849 0.466267 0.50792 0.0514914 0 0 0 0 0 0 2146.52 17 
280 1 C 69.72 78.907 15.593 0.4648 0.526047 0.0540714 69.72 78.907 15.593 0.4648 0.526047 0.0540714 0 0 0 0 0 0 1998.82 17 
281 1 C 69.635 77.901 16.602 0.464233 0.51934 0.0575703 69.635 77.901 16.602 0.464233 0.51934 0.0575703 0 0 0 0 0 0 1910.67 17 
282 1 C 69.644 78.268 17.983 0.464293 0.521787 0.0623591 69.644 78.268 17.983 0.464293 0.521787 0.0623591 0 0 0 0 0 0 1910.57 17 
332 1 C 70.233 75.513 12.087 0.46822 0.50342 0.0419137 70.233 75.513 12.087 0.46822 0.50342 0.0419137 0 0 0 0 0 0 2398.67 16 
336 1 C 69.829 76.538 16.23 0.465527 0.510253 0.0562803 69.829 76.538 16.23 0.465527 0.510253 0.0562803 0 0 0 0 0 0 2040.25 18 