ITEM: TIMESTEP
2200000
ITEM: NUMBER OF ATOMS
5084
ITEM: BOX BOUNDS pp pp pp
0.0000000000000000e+00 1.5000000000000000e+02
0.0000000000000000e+00 1.5000000000000000e+02
0.0000000000000000e+00 2.8837799999999999e+02
ITEM: ATOMS id type element x y z xs ys zs xu yu zu xsu ysu zsu ix iy iz vx vy vz c_voro1[1] c_voro1[2] 
265 1 C 71.414 73.998 0.032 0.476093 0.49332 0.000110965 71.414 73.998 0.032 0.476093 0.49332 0.000110965 0 0 0 0 0 0 3586.56 19 
266 1 C 71.148 74.252 1.413 0.47432 0.495013 0.00489982 71.148 74.252 1.413 0.47432 0.495013 0.00489982 0 0 0 0 0 0 3568.08 19 
267 1 C 71.92 73.601 2.422 0.479467 0.490673 0.0083987 71.92 73.601 2.422 0.479467 0.490673 0.0083987 0 0 0 0 0 0 2924.58 18 
269 1 C 70.671 74.812 4.174 0.47114 0.498747 0.0144741 70.671 74.812 4.174 0.47114 0.498747 0.0144741 0 0 0 0 0 0 3010.02 16 
271 1 C 71.084 74.318 6.564 0.473893 0.495453 0.0227618 71.084 74.318 6.564 0.473893 0.495453 0.0227618 0 0 0 0 0 0 3669.99 17 
321 1 C 73.494 72.859 0.669 0.48996 0.485727 0.00231987 73.494 72.859 0.669 0.48996 0.485727 0.00231987 0 0 0 0 0 0 2182.13 16 
322 1 C 73.144 72.971 2.05 0.487627 0.486473 0.00710873 73.144 72.971 2.05 0.487627 0.486473 0.00710873 0 0 0 0 0 0 2335.02 18 
323 1 C 74.123 72.722 3.059 0.494153 0.484813 0.0106076 74.123 72.722 3.059 0.494153 0.484813 0.0106076 0 0 0 0 0 0 2074.71 16 
324 1 C 71.625 73.82 3.803 0.4775 0.492133 0.0131876 71.625 73.82 3.803 0.4775 0.492133 0.0131876 0 0 0 0 0 0 3465.13 20 
325 1 C 72.471 73.267 4.812 0.48314 0.488447 0.0166864 72.471 73.267 4.812 0.48314 0.488447 0.0166864 0 0 0 0 0 0 2578.9 19 
326 1 C 72.151 73.45 6.192 0.481007 0.489667 0.0214718 72.151 73.45 6.192 0.481007 0.489667 0.0214718 0 0 0 0 0 0 2849.02 18 
327 1 C 73.057 73.003 7.202 0.487047 0.486687 0.0249742 73.057 73.003 7.202 0.487047 0.486687 0.0249742 0 0 0 0 0 0 2336.58 18 
328 1 C 70.841 74.594 7.945 0.472273 0.497293 0.0275506 70.841 74.594 7.945 0.472273 0.497293 0.0275506 0 0 0 0 0 0 3108.34 17 
329 1 C 71.554 73.878 8.954 0.477027 0.49252 0.0310495 71.554 73.878 8.954 0.477027 0.49252 0.0310495 0 0 0 0 0 0 3397.22 16 
377 1 C 74.855 72.66 0.297 0.499033 0.4844 0.0010299 74.855 72.66 0.297 0.499033 0.4844 0.0010299 0 0 0 0 0 0 2066.35 15 
381 1 C 73.761 72.791 4.44 0.49174 0.485273 0.0153965 73.761 72.791 4.44 0.49174 0.485273 0.0153965 0 0 0 0 0 0 2161.8 17 
382 1 C 74.763 72.662 5.449 0.49842 0.484413 0.0188953 74.763 72.662 5.449 0.49842 0.484413 0.0188953 0 0 0 0 0 0 2064.17 17 
383 1 C 74.396 72.687 6.83 0.495973 0.48458 0.0236842 74.396 72.687 6.83 0.495973 0.48458 0.0236842 0 0 0 0 0 0 2062.31 17 
385 1 C 72.718 73.146 8.582 0.484787 0.48764 0.0297596 72.718 73.146 8.582 0.484787 0.48764 0.0297596 0 0 0 0 0 0 2476.91 17 
378 1 C 75.862 72.742 1.306 0.505747 0.484947 0.00452878 75.862 72.742 1.306 0.505747 0.484947 0.00452878 0 0 0 0 0 0 2091.69 17 
379 1 C 75.498 72.69 2.687 0.50332 0.4846 0.00931763 75.498 72.69 2.687 0.50332 0.4846 0.00931763 0 0 0 0 0 0 2046.62 16 
380 1 C 76.488 72.892 3.696 0.50992 0.485947 0.0128165 76.488 72.892 3.696 0.50992 0.485947 0.0128165 0 0 0 0 0 0 2282.59 17 
384 1 C 75.407 72.681 7.839 0.502713 0.48454 0.0271831 75.407 72.681 7.839 0.502713 0.48454 0.0271831 0 0 0 0 0 0 2055.32 17 
433 1 C 79.267 74.907 0.191 0.528447 0.49938 0.000662325 79.267 74.907 0.191 0.528447 0.49938 0.000662325 0 0 0 0 0 0 2804.39 16 
434 1 C 77.174 73.156 0.935 0.514493 0.487707 0.00324227 77.174 73.156 0.935 0.514493 0.487707 0.00324227 0 0 0 0 0 0 2446.07 19 
435 1 C 78.045 73.669 1.944 0.5203 0.491127 0.00674115 78.045 73.669 1.944 0.5203 0.491127 0.00674115 0 0 0 0 0 0 3139.71 18 
436 1 C 77.74 73.463 3.325 0.518267 0.489753 0.01153 77.74 73.463 3.325 0.518267 0.489753 0.01153 0 0 0 0 0 0 2804.33 18 
437 1 C 78.542 74.077 4.334 0.523613 0.493847 0.0150289 78.542 74.077 4.334 0.523613 0.493847 0.0150289 0 0 0 0 0 0 3719.66 18 
438 1 C 76.133 72.797 5.077 0.507553 0.485313 0.0176054 76.133 72.797 5.077 0.507553 0.485313 0.0176054 0 0 0 0 0 0 2124.8 18 
439 1 C 77.091 73.118 6.086 0.51394 0.487453 0.0211042 77.091 73.118 6.086 0.51394 0.487453 0.0211042 0 0 0 0 0 0 2477.37 17 
440 1 C 76.75 72.98 7.467 0.511667 0.486533 0.0258931 76.75 72.98 7.467 0.511667 0.486533 0.0258931 0 0 0 0 0 0 2301 16 
441 1 C 77.662 73.415 8.476 0.517747 0.489433 0.029392 77.662 73.415 8.476 0.517747 0.489433 0.029392 0 0 0 0 0 0 2850.12 16 
490 1 C 79.045 74.614 1.572 0.526967 0.497427 0.00545118 79.045 74.614 1.572 0.526967 0.497427 0.00545118 0 0 0 0 0 0 3266.26 17 
494 1 C 78.264 73.836 5.714 0.52176 0.49224 0.0198143 78.264 73.836 5.714 0.52176 0.49224 0.0198143 0 0 0 0 0 0 3305.11 16 
495 1 C 78.986 74.543 6.724 0.526573 0.496953 0.0233166 78.986 74.543 6.724 0.526573 0.496953 0.0233166 0 0 0 0 0 0 3205.02 19 
496 1 C 78.739 74.27 8.104 0.524927 0.495133 0.028102 78.739 74.27 8.104 0.524927 0.495133 0.028102 0 0 0 0 0 0 3683.55 19 
3626 2 C 72.4781 77.115 3.39148 0.483187 0.5141 0.0117605 72.4781 77.115 3.39148 0.483187 0.5141 0.0117605 0 0 0 -0.000806288 0.00712395 0.00403228 9.91751 21 
105 1 C 70.029 79.965 0.51 0.46686 0.5331 0.00176851 70.029 79.965 0.51 0.46686 0.5331 0.00176851 0 0 0 0 0 0 2191.05 16 
109 1 C 70.55 80.936 4.652 0.470333 0.539573 0.0161316 70.55 80.936 4.652 0.470333 0.539573 0.0161316 0 0 0 0 0 0 2712.22 18 
154 1 C 69.678 78.635 0.138 0.46452 0.524233 0.000478539 69.678 78.635 0.138 0.46452 0.524233 0.000478539 0 0 0 0 0 0 1954.99 17 
155 1 C 69.646 77.625 1.147 0.464307 0.5175 0.00397742 69.646 77.625 1.147 0.464307 0.5175 0.00397742 0 0 0 0 0 0 1895.8 18 
156 1 C 70.18 80.301 1.891 0.467867 0.53534 0.00655737 70.18 80.301 1.891 0.467867 0.53534 0.00655737 0 0 0 0 0 0 2417.56 18 
157 1 C 69.822 79.356 2.9 0.46548 0.52904 0.0100562 69.822 79.356 2.9 0.46548 0.52904 0.0100562 0 0 0 0 0 0 2036.96 17 
158 1 C 69.931 79.707 4.281 0.466207 0.53138 0.0148451 69.931 79.707 4.281 0.466207 0.53138 0.0148451 0 0 0 0 0 0 2164.83 19 
159 1 C 69.691 78.726 5.29 0.464607 0.52484 0.018344 69.691 78.726 5.29 0.464607 0.52484 0.018344 0 0 0 0 0 0 1906.14 17 
160 1 C 70.767 81.233 6.033 0.47178 0.541553 0.0209205 70.767 81.233 6.033 0.47178 0.541553 0.0209205 0 0 0 0 0 0 3152.97 18 
161 1 C 70.221 80.383 7.042 0.46814 0.535887 0.0244193 70.221 80.383 7.042 0.46814 0.535887 0.0244193 0 0 0 0 0 0 2408.78 17 
162 1 C 70.401 80.704 8.423 0.46934 0.538027 0.0292082 70.401 80.704 8.423 0.46934 0.538027 0.0292082 0 0 0 0 0 0 2643.72 16 
209 1 C 69.91 76.275 0.775 0.466067 0.5085 0.00268744 69.91 76.275 0.775 0.466067 0.5085 0.00268744 0 0 0 0 0 0 2089.58 16 
210 1 C 70.321 75.352 1.784 0.468807 0.502347 0.00618632 70.321 75.352 1.784 0.468807 0.502347 0.00618632 0 0 0 0 0 0 2542.84 16 
211 1 C 69.635 77.993 2.528 0.464233 0.519953 0.00876627 69.635 77.993 2.528 0.464233 0.519953 0.00876627 0 0 0 0 0 0 1918.19 17 
212 1 C 69.725 76.986 3.537 0.464833 0.51324 0.0122652 69.725 76.986 3.537 0.464833 0.51324 0.0122652 0 0 0 0 0 0 1990.41 16 
213 1 C 69.67 77.35 4.918 0.464467 0.515667 0.017054 69.67 77.35 4.918 0.464467 0.515667 0.017054 0 0 0 0 0 0 1926.56 18 
214 1 C 69.881 76.362 5.927 0.465873 0.50908 0.0205529 69.881 76.362 5.927 0.465873 0.50908 0.0205529 0 0 0 0 0 0 2140.67 16 
215 1 C 69.756 79.088 6.67 0.46504 0.527253 0.0231294 69.756 79.088 6.67 0.46504 0.527253 0.0231294 0 0 0 0 0 0 2041.23 18 
216 1 C 69.636 78.085 7.679 0.46424 0.520567 0.0266282 69.636 78.085 7.679 0.46424 0.520567 0.0266282 0 0 0 0 0 0 1927.25 19 
268 1 C 70.151 75.678 3.165 0.467673 0.50452 0.0109752 70.151 75.678 3.165 0.467673 0.50452 0.0109752 0 0 0 0 0 0 2319.85 16 
270 1 C 70.463 75.115 5.555 0.469753 0.500767 0.0192629 70.463 75.115 5.555 0.469753 0.500767 0.0192629 0 0 0 0 0 0 2630.55 17 
272 1 C 69.783 76.717 7.308 0.46522 0.511447 0.0253417 69.783 76.717 7.308 0.46522 0.511447 0.0253417 0 0 0 0 0 0 1968.82 17 
273 1 C 70.112 75.761 8.317 0.467413 0.505073 0.0288406 70.112 75.761 8.317 0.467413 0.505073 0.0288406 0 0 0 0 0 0 2345.28 18 
3651 3 C 73.1065 76.6 8.33176 0.487376 0.510667 0.0288918 73.1065 76.6 8.33176 0.487376 0.510667 0.0288918 0 0 0 -0.00382472 0.00106677 0.00506381 6.39677 12 
3636 3 C 72.9153 76.8245 5.40231 0.486102 0.512163 0.0187334 72.9153 76.8245 5.40231 0.486102 0.512163 0.0187334 0 0 0 -0.00319491 -0.00436109 0.00112361 5.55593 11 
3624 3 C 72.624 77.2461 2.45458 0.48416 0.514974 0.00851168 72.624 77.2461 2.45458 0.48416 0.514974 0.00851168 0 0 0 0.00334085 -0.00108586 0.00352854 7.19308 14 
3625 2 C 72.8266 78.1779 2.37124 0.48551 0.521186 0.00822269 72.8266 78.1779 2.37124 0.48551 0.521186 0.00822269 0 0 0 0.0043862 -0.00195233 -0.00364557 8.64519 16 
3652 2 C 73.1441 77.5564 8.34217 0.487627 0.517043 0.0289279 73.1441 77.5564 8.34217 0.487627 0.517043 0.0289279 0 0 0 -0.00305963 0.000811935 0.0286983 8.96141 20 
3638 2 C 72.602 76.6091 6.28076 0.484013 0.510728 0.0217796 72.602 76.6091 6.28076 0.484013 0.510728 0.0217796 0 0 0 -0.0045433 -0.0153812 -0.00205795 9.8533 20 
3637 2 C 73.7738 76.4051 5.34421 0.491825 0.509367 0.018532 73.7738 76.4051 5.34421 0.491825 0.509367 0.018532 0 0 0 -0.00642367 -0.0100477 -0.00556904 10.9597 20 
3653 2 C 74.0227 76.324 8.30763 0.493485 0.508827 0.0288081 74.0227 76.324 8.30763 0.493485 0.508827 0.0288081 0 0 0 -0.00358198 0.000729588 0.0180105 9.07048 17 
3649 2 C 72.8864 78.6072 5.56862 0.485909 0.524048 0.0193101 72.8864 78.6072 5.56862 0.485909 0.524048 0.0193101 0 0 0 0.0137227 -0.00208084 -0.00832954 10.3691 19 
3621 3 C 73.5494 79.7477 2.49349 0.490329 0.531652 0.0086466 73.5494 79.7477 2.49349 0.490329 0.531652 0.0086466 0 0 0 7.11989e-07 -0.00702764 -0.000476789 5.72624 11 
3650 2 C 73.0584 80.0064 6.12044 0.487056 0.533376 0.0212237 73.0584 80.0064 6.12044 0.487056 0.533376 0.0212237 0 0 0 -0.00106585 -0.0104271 0.0172868 9.86475 19 
3648 3 C 73.1736 79.4871 5.32466 0.487824 0.529914 0.0184642 73.1736 79.4871 5.32466 0.487824 0.529914 0.0184642 0 0 0 0.00298261 0.00573107 0.00736698 5.08781 10 
3663 3 C 72.8473 79.2839 8.24373 0.485648 0.52856 0.0285866 72.8473 79.2839 8.24373 0.485648 0.52856 0.0285866 0 0 0 0.00918744 -0.0013309 -0.00341269 6.51061 12 
3622 2 C 73.2389 79.8639 3.39148 0.48826 0.532426 0.0117605 73.2389 79.8639 3.39148 0.48826 0.532426 0.0117605 0 0 0 -0.0123336 -0.00679015 -0.00475579 9.49242 20 
3623 2 C 74.4927 79.9019 2.54383 0.496618 0.532679 0.00882118 74.4927 79.9019 2.54383 0.496618 0.532679 0.00882118 0 0 0 -0.00356775 0.0119318 0.00899918 9.86557 19 
3664 2 C 73.7616 79.4941 8.43354 0.491744 0.52996 0.0292447 73.7616 79.4941 8.43354 0.491744 0.52996 0.0292447 0 0 0 0.00594092 0.00176038 0.00884844 8.88078 19 
3646 2 C 74.869 79.7939 5.01927 0.499127 0.531959 0.0174052 74.869 79.7939 5.01927 0.499127 0.531959 0.0174052 0 0 0 0.000600717 0.00574524 -0.00779625 10.2679 22 
3645 3 C 75.797 80.0243 4.97516 0.505314 0.533495 0.0172522 75.797 80.0243 4.97516 0.505314 0.533495 0.0172522 0 0 0 0.00194803 0.00191432 0.000512568 7.2603 13 
3629 2 C 74.0182 76.2094 2.50137 0.493455 0.508063 0.00867393 74.0182 76.2094 2.50137 0.493455 0.508063 0.00867393 0 0 0 0.014447 0.00564663 0.00822673 10.7514 19 
3660 3 C 75.338 80.2942 8.18715 0.502253 0.535295 0.0283904 75.338 80.2942 8.18715 0.502253 0.535295 0.0283904 0 0 0 0.000400306 0.00366133 0.00225084 5.23372 12 
3627 3 C 74.7514 75.6074 2.37441 0.498343 0.504049 0.00823367 74.7514 75.6074 2.37441 0.498343 0.504049 0.00823367 0 0 0 0.00610786 -0.00244364 -0.00170068 5.40277 11 
3628 2 C 74.802 75.1147 3.19355 0.49868 0.500765 0.0110742 74.802 75.1147 3.19355 0.49868 0.500765 0.0110742 0 0 0 0.0115302 -0.00326888 -0.0025295 10.3682 20 
3640 2 C 75.4535 75.2917 6.30531 0.503024 0.501945 0.0218647 75.4535 75.2917 6.30531 0.503024 0.501945 0.0218647 0 0 0 -0.00460069 0.000272931 0.00225128 9.7438 19 
3654 3 C 75.6556 75.9034 8.29908 0.504371 0.506023 0.0287785 75.6556 75.9034 8.29908 0.504371 0.506023 0.0287785 0 0 0 0.00701543 -0.00206785 0.0045873 6.06138 12 
3639 3 C 75.3633 75.6023 5.40441 0.502422 0.504016 0.0187407 75.3633 75.6023 5.40441 0.502422 0.504016 0.0187407 0 0 0 -0.00553082 -0.000680584 0.00201642 5.6897 11 
3655 2 C 76.0224 76.6742 7.86605 0.506816 0.511161 0.0272769 76.0224 76.6742 7.86605 0.506816 0.511161 0.0272769 0 0 0 -0.00489018 0.0024843 0.00257101 9.46635 19 
3647 2 C 75.8926 80.4761 4.13672 0.50595 0.536507 0.0143448 75.8926 80.4761 4.13672 0.50595 0.536507 0.0143448 0 0 0 0.00810496 0.0158589 0.00870983 9.59051 15 
3632 2 C 76.0667 80.1395 1.17503 0.507111 0.534263 0.00407462 76.0667 80.1395 1.17503 0.507111 0.534263 0.00407462 0 0 0 -0.00547253 -0.00599181 0.00281489 10.3305 18 
3661 2 C 75.1858 81.1518 7.79024 0.501239 0.541012 0.027014 75.1858 81.1518 7.79024 0.501239 0.541012 0.027014 0 0 0 0.0186301 0.00787895 0.00439604 9.96855 20 
3630 3 C 76.2347 79.9323 2.09431 0.508231 0.532882 0.00726237 76.2347 79.9323 2.09431 0.508231 0.532882 0.00726237 0 0 0 -0.00324469 0.0010777 0.00399674 5.78373 10 
3641 2 C 76.1812 76.0671 5.22778 0.507875 0.507114 0.0181282 76.1812 76.0671 5.22778 0.507875 0.507114 0.0181282 0 0 0 -0.0113067 0.0106675 0.00521691 11.2179 21 
5078 2 C 76.2189 76.5243 1.95489 0.508126 0.510162 0.00677893 76.2189 76.5243 290.333 0.508126 0.510162 1.00678 0 0 1 -0.00794816 0.00722049 0.0129729 10.726 24 
5076 3 C 76.9645 77.1185 1.8702 0.513097 0.514123 0.00648523 76.9645 77.1185 290.248 0.513097 0.514123 1.00649 0 0 1 -0.00855166 0.00611982 -2.54494e-05 5.89079 12 
3644 2 C 77.4455 77.5504 3.87316 0.516304 0.517003 0.0134309 77.4455 77.5504 3.87316 0.516304 0.517003 0.0134309 0 0 0 -0.00228693 -0.0139066 0.0070093 10.5799 20 
3642 3 C 77.2426 77.6519 4.80308 0.514951 0.51768 0.0166555 77.2426 77.6519 4.80308 0.514951 0.51768 0.0166555 0 0 0 -0.00116064 0.00263291 0.00543182 5.89216 11 
3666 3 C 76.9631 78.1362 7.5713 0.513087 0.520908 0.0262548 76.9631 78.1362 7.5713 0.513087 0.520908 0.0262548 0 0 0 -0.00557855 -0.00400796 -0.0042302 6.25211 11 
3668 2 C 77.2457 77.9458 6.67682 0.514971 0.519638 0.023153 77.2457 77.9458 6.67682 0.514971 0.519638 0.023153 0 0 0 -0.0102358 -0.0119455 -0.00401262 9.75828 18 
3631 2 C 76.643 79.0667 2.07449 0.510953 0.527111 0.00719366 76.643 79.0667 2.07449 0.510953 0.527111 0.00719366 0 0 0 -0.0138052 -0.00403514 0.0104775 11.3774 19 
3643 2 C 76.9481 78.5589 4.8868 0.512987 0.523726 0.0169458 76.9481 78.5589 4.8868 0.512987 0.523726 0.0169458 0 0 0 -0.0209156 -0.00204496 -0.0139729 10.0505 19 
3667 2 C 76.3813 78.8912 7.48357 0.509209 0.525942 0.0259505 76.3813 78.8912 7.48357 0.509209 0.525942 0.0259505 0 0 0 -0.0332805 -0.0262179 -0.0119585 11.1015 22 
1 1 C 80.209 78.477 0.457 0.534727 0.52318 0.00158473 80.209 78.477 0.457 0.534727 0.52318 0.00158473 0 0 0 0 0 0 1930.31 18 
2 1 C 80.015 79.469 1.466 0.533433 0.529793 0.00508361 80.015 79.469 1.466 0.533433 0.529793 0.00508361 0 0 0 0 0 0 2117.89 18 
3 1 C 80.217 78.386 5.608 0.53478 0.522573 0.0194467 80.217 78.386 5.608 0.53478 0.522573 0.0194467 0 0 0 0 0 0 1921.4 18 
4 1 C 79.455 80.726 1.094 0.5297 0.538173 0.00379363 79.455 80.726 1.094 0.5297 0.538173 0.00379363 0 0 0 0 0 0 2585.08 18 
6 1 C 80.107 79.113 2.847 0.534047 0.52742 0.00987246 80.107 79.113 2.847 0.534047 0.52742 0.00987246 0 0 0 0 0 0 1980.94 17 
7 1 C 79.795 80.073 3.856 0.531967 0.53382 0.0133713 79.795 80.073 3.856 0.531967 0.53382 0.0133713 0 0 0 0 0 0 2325.89 17 
8 1 C 79.929 79.731 5.236 0.53286 0.53154 0.0181567 79.929 79.731 5.236 0.53286 0.53154 0.0181567 0 0 0 0 0 0 2095.55 18 
9 1 C 79.503 80.647 6.246 0.53002 0.537647 0.0216591 79.503 80.647 6.246 0.53002 0.537647 0.0216591 0 0 0 0 0 0 2657.04 17 
10 1 C 80.234 78.018 6.989 0.534893 0.52012 0.0242356 80.234 78.018 6.989 0.534893 0.52012 0.0242356 0 0 0 0 0 0 1912.39 16 
11 1 C 80.127 79.023 7.998 0.53418 0.52682 0.0277344 80.127 79.023 7.998 0.53418 0.52682 0.0277344 0 0 0 0 0 0 2035.24 17 
22 1 C 79.678 80.323 7.626 0.531187 0.535487 0.0264445 79.678 80.323 7.626 0.531187 0.535487 0.0264445 0 0 0 0 0 0 2345.06 18 
23 1 C 79.143 81.181 8.635 0.52762 0.541207 0.0299433 79.143 81.181 8.635 0.52762 0.541207 0.0299433 0 0 0 0 0 0 3116.33 18 
489 1 C 80.165 77.102 0.828 0.534433 0.514013 0.00287123 80.165 77.102 0.828 0.534433 0.514013 0.00287123 0 0 0 0 0 0 1962.36 16 
491 1 C 79.605 75.455 2.581 0.5307 0.503033 0.00895006 79.605 75.455 2.581 0.5307 0.503033 0.00895006 0 0 0 0 0 0 2413.84 18 
492 1 C 79.42 75.137 3.962 0.529467 0.500913 0.0137389 79.42 75.137 3.962 0.529467 0.500913 0.0137389 0 0 0 0 0 0 2717.95 19 
493 1 C 79.874 76.039 4.971 0.532493 0.506927 0.0172378 79.874 76.039 4.971 0.532493 0.506927 0.0172378 0 0 0 0 0 0 2161.11 18 
544 1 C 80.093 76.741 2.209 0.533953 0.511607 0.00766009 80.093 76.741 2.209 0.533953 0.511607 0.00766009 0 0 0 0 0 0 2054.32 17 
545 1 C 80.23 77.742 3.218 0.534867 0.51828 0.011159 80.23 77.742 3.218 0.534867 0.51828 0.011159 0 0 0 0 0 0 1915.33 16 
546 1 C 80.202 77.375 4.599 0.53468 0.515833 0.0159478 80.202 77.375 4.599 0.53468 0.515833 0.0159478 0 0 0 0 0 0 1930.4 16 
547 1 C 79.729 75.701 6.352 0.531527 0.504673 0.0220266 79.729 75.701 6.352 0.531527 0.504673 0.0220266 0 0 0 0 0 0 2373.61 17 
548 1 C 80.071 76.652 7.361 0.533807 0.511013 0.0255255 80.071 76.652 7.361 0.533807 0.511013 0.0255255 0 0 0 0 0 0 2035.34 17 
549 1 C 79.968 76.299 8.742 0.53312 0.50866 0.0303144 79.968 76.299 8.742 0.53312 0.50866 0.0303144 0 0 0 0 0 0 2157.58 19 
5077 2 C 77.3903 76.8545 1.05462 0.515936 0.512363 0.00365707 77.3903 76.8545 289.433 0.515936 0.512363 1.00366 0 0 1 -0.0115993 -0.00757223 0.00280674 10.1666 19 
3662 2 C 75.3111 80.4578 9.12987 0.502074 0.536386 0.0316594 75.3111 80.4578 9.12987 0.502074 0.536386 0.0316594 0 0 0 -0.00580857 0.000157918 0.002689 8.21631 16 
3656 2 C 75.978 75.9574 9.19875 0.50652 0.506383 0.0318982 75.978 75.9574 9.19875 0.50652 0.506383 0.0318982 0 0 0 -0.00855598 0.0149572 0.00917807 9.34318 20 
38 1 C 74.554 83.245 3.378 0.497027 0.554967 0.0117138 74.554 83.245 3.378 0.497027 0.554967 0.0117138 0 0 0 0 0 0 1777.42 18 
65 1 C 73.826 83.142 0.616 0.492173 0.55428 0.00213609 73.826 83.142 0.616 0.492173 0.55428 0.00213609 0 0 0 0 0 0 1857.91 20 
66 1 C 72.863 82.837 1.625 0.485753 0.552247 0.00563497 72.863 82.837 1.625 0.485753 0.552247 0.00563497 0 0 0 0 0 0 2115.98 18 
67 1 C 73.206 82.969 3.006 0.48804 0.553127 0.0104238 73.206 82.969 3.006 0.48804 0.553127 0.0104238 0 0 0 0 0 0 1970.94 17 
68 1 C 72.287 82.55 4.015 0.481913 0.550333 0.0139227 72.287 82.55 4.015 0.481913 0.550333 0.0139227 0 0 0 0 0 0 2398.5 18 
69 1 C 74.922 83.259 4.759 0.49948 0.55506 0.0165026 74.922 83.259 4.759 0.49948 0.55506 0.0165026 0 0 0 0 0 0 1783.89 18 
70 1 C 73.916 83.16 5.768 0.492773 0.5544 0.0200015 73.916 83.16 5.768 0.492773 0.5544 0.0200015 0 0 0 0 0 0 1861.95 18 
71 1 C 74.28 83.218 7.148 0.4952 0.554787 0.0247869 74.28 83.218 7.148 0.4952 0.554787 0.0247869 0 0 0 0 0 0 1783.28 16 
72 1 C 73.294 82.999 8.157 0.488627 0.553327 0.0282858 73.294 82.999 8.157 0.488627 0.553327 0.0282858 0 0 0 0 0 0 2008.22 18 
106 1 C 71.677 82.14 1.253 0.477847 0.5476 0.00434499 71.677 82.14 1.253 0.477847 0.5476 0.00434499 0 0 0 0 0 0 2817.63 16 
107 1 C 70.943 81.446 2.262 0.472953 0.542973 0.00784387 70.943 81.446 2.262 0.472953 0.542973 0.00784387 0 0 0 0 0 0 3290.9 18 
108 1 C 71.194 81.714 3.643 0.474627 0.54476 0.0126327 71.194 81.714 3.643 0.474627 0.54476 0.0126327 0 0 0 0 0 0 3407.92 17 
110 1 C 72.612 82.723 5.396 0.48408 0.551487 0.0187116 72.612 82.723 5.396 0.48408 0.551487 0.0187116 0 0 0 0 0 0 2184.84 18 
111 1 C 71.75 82.196 6.405 0.478333 0.547973 0.0222104 71.75 82.196 6.405 0.478333 0.547973 0.0222104 0 0 0 0 0 0 2903.19 15 
112 1 C 72.052 82.406 7.786 0.480347 0.549373 0.0269993 72.052 82.406 7.786 0.480347 0.549373 0.0269993 0 0 0 0 0 0 2443.26 18 
113 1 C 71.26 81.778 8.795 0.475067 0.545187 0.0304982 71.26 81.778 8.795 0.475067 0.545187 0.0304982 0 0 0 0 0 0 3413.44 18 
5 1 C 78.848 81.533 2.103 0.525653 0.543553 0.00729251 78.848 81.533 2.103 0.525653 0.543553 0.00729251 0 0 0 0 0 0 3443.11 18 
15 1 C 77.48 82.608 0.351 0.516533 0.55072 0.00121715 77.48 82.608 0.351 0.516533 0.55072 0.00121715 0 0 0 0 0 0 2297.54 16 
16 1 C 77.796 82.42 1.731 0.51864 0.549467 0.00600254 77.796 82.42 1.731 0.51864 0.549467 0.00600254 0 0 0 0 0 0 2551.59 16 
17 1 C 76.898 82.882 2.74 0.512653 0.552547 0.00950142 76.898 82.882 2.74 0.512653 0.552547 0.00950142 0 0 0 0 0 0 2037.57 17 
18 1 C 79.087 81.253 3.484 0.527247 0.541687 0.0120814 79.087 81.253 3.484 0.527247 0.541687 0.0120814 0 0 0 0 0 0 3071.14 18 
19 1 C 78.386 81.981 4.493 0.522573 0.54654 0.0155802 78.386 81.981 4.493 0.522573 0.54654 0.0155802 0 0 0 0 0 0 3014.17 17 
20 1 C 78.657 81.732 5.874 0.52438 0.54488 0.0203691 78.657 81.732 5.874 0.52438 0.54488 0.0203691 0 0 0 0 0 0 3480.29 18 
21 1 C 77.873 82.37 6.883 0.519153 0.549133 0.023868 77.873 82.37 6.883 0.519153 0.549133 0.023868 0 0 0 0 0 0 2542.62 18 
36 1 C 75.198 83.253 0.988 0.50132 0.55502 0.00342606 75.198 83.253 0.988 0.50132 0.55502 0.00342606 0 0 0 0 0 0 1796.93 17 
37 1 C 75.564 83.222 2.369 0.50376 0.554813 0.00821491 75.564 83.222 2.369 0.50376 0.554813 0.00821491 0 0 0 0 0 0 1826.75 18 
39 1 C 77.235 82.734 4.121 0.5149 0.55156 0.0142903 77.235 82.734 4.121 0.5149 0.55156 0.0142903 0 0 0 0 0 0 2236.89 15 
40 1 C 76.287 83.084 5.13 0.50858 0.553893 0.0177892 76.287 83.084 5.13 0.50858 0.553893 0.0177892 0 0 0 0 0 0 1893.3 17 
41 1 C 76.639 82.978 6.511 0.510927 0.553187 0.022578 76.639 82.978 6.511 0.510927 0.553187 0.022578 0 0 0 0 0 0 2027.5 16 
42 1 C 75.656 83.21 7.52 0.504373 0.554733 0.0260769 75.656 83.21 7.52 0.504373 0.554733 0.0260769 0 0 0 0 0 0 1813.32 15 
43 1 C 78.172 82.155 8.264 0.521147 0.5477 0.0286568 78.172 82.155 8.264 0.521147 0.5477 0.0286568 0 0 0 0 0 0 2878.21 19 
73 1 C 76.018 83.147 8.901 0.506787 0.554313 0.0308657 76.018 83.147 8.901 0.506787 0.554313 0.0308657 0 0 0 0 0 0 1859.71 16 
330 1 C 71.279 74.123 10.335 0.475193 0.494153 0.0358384 71.279 74.123 10.335 0.475193 0.494153 0.0358384 0 0 0 0 0 0 3679.08 17 
331 1 C 72.073 73.499 11.344 0.480487 0.489993 0.0393373 72.073 73.499 11.344 0.480487 0.489993 0.0393373 0 0 0 0 0 0 2832.88 16 
333 1 C 70.783 74.666 13.097 0.471887 0.497773 0.0454161 70.783 74.666 13.097 0.471887 0.497773 0.0454161 0 0 0 0 0 0 3166.46 18 
334 1 C 70.564 74.962 14.477 0.470427 0.499747 0.0502015 70.564 74.962 14.477 0.470427 0.499747 0.0502015 0 0 0 0 0 0 2756.94 17 
335 1 C 71.213 74.187 15.486 0.474753 0.49458 0.0537004 71.213 74.187 15.486 0.474753 0.49458 0.0537004 0 0 0 0 0 0 3672.11 17 
386 1 C 73.672 72.812 9.591 0.491147 0.485413 0.0332584 73.672 72.812 9.591 0.491147 0.485413 0.0332584 0 0 0 0 0 0 2150.51 20 
387 1 C 73.318 72.912 10.972 0.488787 0.48608 0.0380473 73.318 72.912 10.972 0.488787 0.48608 0.0380473 0 0 0 0 0 0 2294.62 18 
388 1 C 74.305 72.697 11.981 0.495367 0.484647 0.0415462 74.305 72.697 11.981 0.495367 0.484647 0.0415462 0 0 0 0 0 0 2082.2 19 
389 1 C 71.771 73.708 12.725 0.478473 0.491387 0.0441261 71.771 73.708 12.725 0.478473 0.491387 0.0441261 0 0 0 0 0 0 3241.67 16 
390 1 C 72.635 73.185 13.734 0.484233 0.4879 0.047625 72.635 73.185 13.734 0.484233 0.4879 0.047625 0 0 0 0 0 0 2464.16 17 
391 1 C 72.309 73.356 15.115 0.48206 0.48904 0.0524138 72.309 73.356 15.115 0.48206 0.48904 0.0524138 0 0 0 0 0 0 2744.31 16 
392 1 C 73.231 72.941 16.124 0.488207 0.486273 0.0559127 73.231 72.941 16.124 0.488207 0.486273 0.0559127 0 0 0 0 0 0 2248.82 18 
393 1 C 70.96 74.454 16.867 0.473067 0.49636 0.0584892 70.96 74.454 16.867 0.473067 0.49636 0.0584892 0 0 0 0 0 0 3325.82 18 
394 1 C 71.697 73.763 17.876 0.47798 0.491753 0.0619881 71.697 73.763 17.876 0.47798 0.491753 0.0619881 0 0 0 0 0 0 3247.46 15 
446 1 C 73.941 72.754 13.362 0.49294 0.485027 0.046335 73.941 72.754 13.362 0.49294 0.485027 0.046335 0 0 0 0 0 0 2109.18 18 
447 1 C 74.947 72.66 14.371 0.499647 0.4844 0.0498339 74.947 72.66 14.371 0.499647 0.4844 0.0498339 0 0 0 0 0 0 2026.08 19 
448 1 C 74.58 72.672 15.752 0.4972 0.48448 0.0546228 74.58 72.672 15.752 0.4972 0.48448 0.0546228 0 0 0 0 0 0 2048.37 18 
450 1 C 72.886 73.071 17.505 0.485907 0.48714 0.0607016 72.886 73.071 17.505 0.485907 0.48714 0.0607016 0 0 0 0 0 0 2472.36 15 
442 1 C 75.039 72.661 9.22 0.50026 0.484407 0.0319719 75.039 72.661 9.22 0.50026 0.484407 0.0319719 0 0 0 0 0 0 2022.75 18 
443 1 C 76.043 72.777 10.229 0.506953 0.48518 0.0354708 76.043 72.777 10.229 0.506953 0.48518 0.0354708 0 0 0 0 0 0 2127.79 17 
444 1 C 75.681 72.712 11.609 0.50454 0.484747 0.0402562 75.681 72.712 11.609 0.50454 0.484747 0.0402562 0 0 0 0 0 0 2110.18 17 
445 1 C 76.663 72.949 12.619 0.511087 0.486327 0.0437585 76.663 72.949 12.619 0.511087 0.486327 0.0437585 0 0 0 0 0 0 2347.75 17 
449 1 C 75.59 72.7 16.761 0.503933 0.484667 0.0581216 75.59 72.7 16.761 0.503933 0.484667 0.0581216 0 0 0 0 0 0 2112.9 19 
498 1 C 77.34 73.237 9.857 0.5156 0.488247 0.0341808 77.34 73.237 9.857 0.5156 0.488247 0.0341808 0 0 0 0 0 0 2517.95 16 
499 1 C 78.192 73.779 10.866 0.52128 0.49186 0.0376797 78.192 73.779 10.866 0.52128 0.49186 0.0376797 0 0 0 0 0 0 3359.11 17 
500 1 C 77.894 73.563 12.247 0.519293 0.49042 0.0424686 77.894 73.563 12.247 0.519293 0.49042 0.0424686 0 0 0 0 0 0 2912.21 16 
501 1 C 78.675 74.205 13.256 0.5245 0.4947 0.0459674 78.675 74.205 13.256 0.5245 0.4947 0.0459674 0 0 0 0 0 0 3665.94 17 
502 1 C 76.311 72.842 13.999 0.50874 0.485613 0.0485439 76.311 72.842 13.999 0.50874 0.485613 0.0485439 0 0 0 0 0 0 2128.07 18 
503 1 C 77.257 73.196 15.008 0.515047 0.487973 0.0520428 77.257 73.196 15.008 0.515047 0.487973 0.0520428 0 0 0 0 0 0 2531.19 16 
504 1 C 76.921 73.046 16.389 0.512807 0.486973 0.0568317 76.921 73.046 16.389 0.512807 0.486973 0.0568317 0 0 0 0 0 0 2353.9 16 
505 1 C 77.818 73.512 17.398 0.518787 0.49008 0.0603305 77.818 73.512 17.398 0.518787 0.49008 0.0603305 0 0 0 0 0 0 3018.01 17 
551 1 C 79.159 74.759 10.494 0.527727 0.498393 0.0363897 79.159 74.759 10.494 0.527727 0.498393 0.0363897 0 0 0 0 0 0 3106.78 18 
555 1 C 78.405 73.954 14.637 0.5227 0.493027 0.0507563 78.405 73.954 14.637 0.5227 0.493027 0.0507563 0 0 0 0 0 0 3486.76 17 
556 1 C 79.102 74.686 15.646 0.527347 0.497907 0.0542552 79.102 74.686 15.646 0.527347 0.497907 0.0542552 0 0 0 0 0 0 2994.25 16 
557 1 C 78.865 74.404 17.027 0.525767 0.496027 0.059044 78.865 74.404 17.027 0.525767 0.496027 0.059044 0 0 0 0 0 0 3604.37 19 
3665 2 C 72.46 79.1026 9.10008 0.483066 0.52735 0.0315561 72.46 79.1026 9.10008 0.483066 0.52735 0.0315561 0 0 0 -0.00331651 0.00380512 -0.00797702 8.58749 17 
3671 2 C 73.084 76.126 10.1431 0.487226 0.507507 0.0351728 73.084 76.126 10.1431 0.487226 0.507507 0.0351728 0 0 0 0.0085731 -0.016495 -0.00770952 9.18797 20 
3670 2 C 72.86 75.8953 11.6224 0.485733 0.505968 0.0403027 72.86 75.8953 11.6224 0.485733 0.505968 0.0403027 0 0 0 0.00690807 -0.00933324 -0.00684193 10.2962 21 
163 1 C 69.963 79.794 9.432 0.46642 0.53196 0.0327071 69.963 79.794 9.432 0.46642 0.53196 0.0327071 0 0 0 0 0 0 2122.29 16 
167 1 C 70.449 80.782 13.575 0.46966 0.538547 0.0470736 70.449 80.782 13.575 0.46966 0.538547 0.0470736 0 0 0 0 0 0 2614.24 18 
217 1 C 69.658 78.452 9.06 0.464387 0.523013 0.0314171 69.658 78.452 9.06 0.464387 0.523013 0.0314171 0 0 0 0 0 0 1912.46 17 
218 1 C 69.66 77.442 10.069 0.4644 0.51628 0.034916 69.66 77.442 10.069 0.4644 0.51628 0.034916 0 0 0 0 0 0 1940.94 20 
219 1 C 70.102 80.134 10.813 0.467347 0.534227 0.0374959 70.102 80.134 10.813 0.467347 0.534227 0.0374959 0 0 0 0 0 0 2315.98 17 
220 1 C 69.777 79.177 11.822 0.46518 0.527847 0.0409948 69.777 79.177 11.822 0.46518 0.527847 0.0409948 0 0 0 0 0 0 1993.83 16 
221 1 C 69.874 79.532 13.203 0.465827 0.530213 0.0457837 69.874 79.532 13.203 0.465827 0.530213 0.0457837 0 0 0 0 0 0 2096.94 17 
222 1 C 69.667 78.543 14.212 0.464447 0.52362 0.0492825 69.667 78.543 14.212 0.464447 0.52362 0.0492825 0 0 0 0 0 0 1923.16 17 
223 1 C 70.656 81.087 14.955 0.47104 0.54058 0.051859 70.656 81.087 14.955 0.47104 0.54058 0.051859 0 0 0 0 0 0 2992.97 17 
224 1 C 70.14 80.218 15.964 0.4676 0.534787 0.0553579 70.14 80.218 15.964 0.4676 0.534787 0.0553579 0 0 0 0 0 0 2307.81 18 
225 1 C 70.308 80.545 17.345 0.46872 0.536967 0.0601468 70.308 80.545 17.345 0.46872 0.536967 0.0601468 0 0 0 0 0 0 2569.47 18 
274 1 C 69.971 76.101 9.698 0.466473 0.50734 0.0336295 69.971 76.101 9.698 0.466473 0.50734 0.0336295 0 0 0 0 0 0 2164.54 18 
275 1 C 70.414 75.193 10.707 0.469427 0.501287 0.0371284 70.414 75.193 10.707 0.469427 0.501287 0.0371284 0 0 0 0 0 0 2684.65 16 
276 1 C 69.637 77.809 11.45 0.464247 0.518727 0.0397048 69.637 77.809 11.45 0.464247 0.518727 0.0397048 0 0 0 0 0 0 1901.07 18 
277 1 C 69.762 76.806 12.459 0.46508 0.51204 0.0432037 69.762 76.806 12.459 0.46508 0.51204 0.0432037 0 0 0 0 0 0 2003.94 19 
278 1 C 69.694 77.168 13.84 0.464627 0.514453 0.0479926 69.694 77.168 13.84 0.464627 0.514453 0.0479926 0 0 0 0 0 0 1955.11 16 
279 1 C 69.94 76.188 14.849 0.466267 0.50792 0.0514914 69.94 76.188 14.849 0.466267 0.50792 0.0514914 0 0 0 0 0 0 2146.56 17 
280 1 C 69.72 78.907 15.593 0.4648 0.526047 0.0540714 69.72 78.907 15.593 0.4648 0.526047 0.0540714 0 0 0 0 0 0 1999 17 
281 1 C 69.635 77.901 16.602 0.464233 0.51934 0.0575703 69.635 77.901 16.602 0.464233 0.51934 0.0575703 0 0 0 0 0 0 1911.12 17 
282 1 C 69.644 78.268 17.983 0.464293 0.521787 0.0623591 69.644 78.268 17.983 0.464293 0.521787 0.0623591 0 0 0 0 0 0 1911.01 17 
332 1 C 70.233 75.513 12.087 0.46822 0.50342 0.0419137 70.233 75.513 12.087 0.46822 0.50342 0.0419137 0 0 0 0 0 0 2398.54 16 
336 1 C 69.829 76.538 16.23 0.465527 0.510253 0.0562803 69.829 76.538 16.23 0.465527 0.510253 0.0562803 0 0 0 0 0 0 2040.47 19 
337 1 C 70.191 75.595 17.239 0.46794 0.503967 0.0597792 70.191 75.595 17.239 0.46794 0.503967 0.0597792 0 0 0 0 0 0 2458.86 18 
3669 3 C 73.4955 76.2467 10.9988 0.48997 0.508311 0.0381403 73.4955 76.2467 10.9988 0.48997 0.508311 0.0381403 0 0 0 0.00088044 0.00195203 -0.00661294 5.04405 10 
3686 2 C 73.1263 76.1175 14.9161 0.487509 0.50745 0.051724 73.1263 76.1175 14.9161 0.487509 0.50745 0.051724 0 0 0 0.0367539 0.0292143 0.015396 9.6296 20 