ITEM: TIMESTEP
13600000
ITEM: NUMBER OF ATOMS
5084
ITEM: BOX BOUNDS pp pp pp
0.0000000000000000e+00 1.5000000000000000e+02
0.0000000000000000e+00 1.5000000000000000e+02
0.0000000000000000e+00 2.8837799999999999e+02
ITEM: ATOMS id type element x y z xs ys zs xu yu zu xsu ysu zsu ix iy iz vx vy vz c_voro1[1] c_voro1[2] 
265 1 C 71.414 73.998 0.032 0.476093 0.49332 0.000110965 71.414 73.998 0.032 0.476093 0.49332 0.000110965 0 0 0 0 0 0 3585.55 17 
266 1 C 71.148 74.252 1.413 0.47432 0.495013 0.00489982 71.148 74.252 1.413 0.47432 0.495013 0.00489982 0 0 0 0 0 0 3567.47 18 
267 1 C 71.92 73.601 2.422 0.479467 0.490673 0.0083987 71.92 73.601 2.422 0.479467 0.490673 0.0083987 0 0 0 0 0 0 2924.28 18 
269 1 C 70.671 74.812 4.174 0.47114 0.498747 0.0144741 70.671 74.812 4.174 0.47114 0.498747 0.0144741 0 0 0 0 0 0 3010.42 18 
271 1 C 71.084 74.318 6.564 0.473893 0.495453 0.0227618 71.084 74.318 6.564 0.473893 0.495453 0.0227618 0 0 0 0 0 0 3670.61 19 
321 1 C 73.494 72.859 0.669 0.48996 0.485727 0.00231987 73.494 72.859 0.669 0.48996 0.485727 0.00231987 0 0 0 0 0 0 2182.02 16 
322 1 C 73.144 72.971 2.05 0.487627 0.486473 0.00710873 73.144 72.971 2.05 0.487627 0.486473 0.00710873 0 0 0 0 0 0 2334.86 17 
323 1 C 74.123 72.722 3.059 0.494153 0.484813 0.0106076 74.123 72.722 3.059 0.494153 0.484813 0.0106076 0 0 0 0 0 0 2075.03 15 
324 1 C 71.625 73.82 3.803 0.4775 0.492133 0.0131876 71.625 73.82 3.803 0.4775 0.492133 0.0131876 0 0 0 0 0 0 3464.73 17 
325 1 C 72.471 73.267 4.812 0.48314 0.488447 0.0166864 72.471 73.267 4.812 0.48314 0.488447 0.0166864 0 0 0 0 0 0 2578.63 17 
326 1 C 72.151 73.45 6.192 0.481007 0.489667 0.0214718 72.151 73.45 6.192 0.481007 0.489667 0.0214718 0 0 0 0 0 0 2848.76 16 
327 1 C 73.057 73.003 7.202 0.487047 0.486687 0.0249742 73.057 73.003 7.202 0.487047 0.486687 0.0249742 0 0 0 0 0 0 2336.2 17 
328 1 C 70.841 74.594 7.945 0.472273 0.497293 0.0275506 70.841 74.594 7.945 0.472273 0.497293 0.0275506 0 0 0 0 0 0 3108.69 17 
329 1 C 71.554 73.878 8.954 0.477027 0.49252 0.0310495 71.554 73.878 8.954 0.477027 0.49252 0.0310495 0 0 0 0 0 0 3397.13 16 
377 1 C 74.855 72.66 0.297 0.499033 0.4844 0.0010299 74.855 72.66 0.297 0.499033 0.4844 0.0010299 0 0 0 0 0 0 2067.12 18 
381 1 C 73.761 72.791 4.44 0.49174 0.485273 0.0153965 73.761 72.791 4.44 0.49174 0.485273 0.0153965 0 0 0 0 0 0 2161.88 18 
382 1 C 74.763 72.662 5.449 0.49842 0.484413 0.0188953 74.763 72.662 5.449 0.49842 0.484413 0.0188953 0 0 0 0 0 0 2064.6 18 
383 1 C 74.396 72.687 6.83 0.495973 0.48458 0.0236842 74.396 72.687 6.83 0.495973 0.48458 0.0236842 0 0 0 0 0 0 2062.68 18 
385 1 C 72.718 73.146 8.582 0.484787 0.48764 0.0297596 72.718 73.146 8.582 0.484787 0.48764 0.0297596 0 0 0 0 0 0 2476.3 16 
378 1 C 75.862 72.742 1.306 0.505747 0.484947 0.00452878 75.862 72.742 1.306 0.505747 0.484947 0.00452878 0 0 0 0 0 0 2092 17 
379 1 C 75.498 72.69 2.687 0.50332 0.4846 0.00931763 75.498 72.69 2.687 0.50332 0.4846 0.00931763 0 0 0 0 0 0 2047.33 20 
380 1 C 76.488 72.892 3.696 0.50992 0.485947 0.0128165 76.488 72.892 3.696 0.50992 0.485947 0.0128165 0 0 0 0 0 0 2282.94 18 
384 1 C 75.407 72.681 7.839 0.502713 0.48454 0.0271831 75.407 72.681 7.839 0.502713 0.48454 0.0271831 0 0 0 0 0 0 2055.66 18 
433 1 C 79.267 74.907 0.191 0.528447 0.49938 0.000662325 79.267 74.907 0.191 0.528447 0.49938 0.000662325 0 0 0 0 0 0 2804.31 16 
434 1 C 77.174 73.156 0.935 0.514493 0.487707 0.00324227 77.174 73.156 0.935 0.514493 0.487707 0.00324227 0 0 0 0 0 0 2445.4 15 
435 1 C 78.045 73.669 1.944 0.5203 0.491127 0.00674115 78.045 73.669 1.944 0.5203 0.491127 0.00674115 0 0 0 0 0 0 3138.95 17 
436 1 C 77.74 73.463 3.325 0.518267 0.489753 0.01153 77.74 73.463 3.325 0.518267 0.489753 0.01153 0 0 0 0 0 0 2803.7 17 
437 1 C 78.542 74.077 4.334 0.523613 0.493847 0.0150289 78.542 74.077 4.334 0.523613 0.493847 0.0150289 0 0 0 0 0 0 3719.08 17 
438 1 C 76.133 72.797 5.077 0.507553 0.485313 0.0176054 76.133 72.797 5.077 0.507553 0.485313 0.0176054 0 0 0 0 0 0 2125.4 20 
439 1 C 77.091 73.118 6.086 0.51394 0.487453 0.0211042 77.091 73.118 6.086 0.51394 0.487453 0.0211042 0 0 0 0 0 0 2477.85 18 
440 1 C 76.75 72.98 7.467 0.511667 0.486533 0.0258931 76.75 72.98 7.467 0.511667 0.486533 0.0258931 0 0 0 0 0 0 2301.2 17 
441 1 C 77.662 73.415 8.476 0.517747 0.489433 0.029392 77.662 73.415 8.476 0.517747 0.489433 0.029392 0 0 0 0 0 0 2849.86 16 
490 1 C 79.045 74.614 1.572 0.526967 0.497427 0.00545118 79.045 74.614 1.572 0.526967 0.497427 0.00545118 0 0 0 0 0 0 3265.91 16 
494 1 C 78.264 73.836 5.714 0.52176 0.49224 0.0198143 78.264 73.836 5.714 0.52176 0.49224 0.0198143 0 0 0 0 0 0 3304.89 17 
495 1 C 78.986 74.543 6.724 0.526573 0.496953 0.0233166 78.986 74.543 6.724 0.526573 0.496953 0.0233166 0 0 0 0 0 0 3203.62 15 
496 1 C 78.739 74.27 8.104 0.524927 0.495133 0.028102 78.739 74.27 8.104 0.524927 0.495133 0.028102 0 0 0 0 0 0 3682.44 17 
105 1 C 70.029 79.965 0.51 0.46686 0.5331 0.00176851 70.029 79.965 0.51 0.46686 0.5331 0.00176851 0 0 0 0 0 0 2191.53 18 
109 1 C 70.55 80.936 4.652 0.470333 0.539573 0.0161316 70.55 80.936 4.652 0.470333 0.539573 0.0161316 0 0 0 0 0 0 2712.25 18 
154 1 C 69.678 78.635 0.138 0.46452 0.524233 0.000478539 69.678 78.635 0.138 0.46452 0.524233 0.000478539 0 0 0 0 0 0 1954.95 17 
155 1 C 69.646 77.625 1.147 0.464307 0.5175 0.00397742 69.646 77.625 1.147 0.464307 0.5175 0.00397742 0 0 0 0 0 0 1895.52 17 
156 1 C 70.18 80.301 1.891 0.467867 0.53534 0.00655737 70.18 80.301 1.891 0.467867 0.53534 0.00655737 0 0 0 0 0 0 2417.44 17 
157 1 C 69.822 79.356 2.9 0.46548 0.52904 0.0100562 69.822 79.356 2.9 0.46548 0.52904 0.0100562 0 0 0 0 0 0 2036.36 15 
158 1 C 69.931 79.707 4.281 0.466207 0.53138 0.0148451 69.931 79.707 4.281 0.466207 0.53138 0.0148451 0 0 0 0 0 0 2164.41 17 
159 1 C 69.691 78.726 5.29 0.464607 0.52484 0.018344 69.691 78.726 5.29 0.464607 0.52484 0.018344 0 0 0 0 0 0 1905.7 16 
160 1 C 70.767 81.233 6.033 0.47178 0.541553 0.0209205 70.767 81.233 6.033 0.47178 0.541553 0.0209205 0 0 0 0 0 0 3153.49 19 
161 1 C 70.221 80.383 7.042 0.46814 0.535887 0.0244193 70.221 80.383 7.042 0.46814 0.535887 0.0244193 0 0 0 0 0 0 2408.87 17 
162 1 C 70.401 80.704 8.423 0.46934 0.538027 0.0292082 70.401 80.704 8.423 0.46934 0.538027 0.0292082 0 0 0 0 0 0 2644.09 16 
209 1 C 69.91 76.275 0.775 0.466067 0.5085 0.00268744 69.91 76.275 0.775 0.466067 0.5085 0.00268744 0 0 0 0 0 0 2089.58 19 
210 1 C 70.321 75.352 1.784 0.468807 0.502347 0.00618632 70.321 75.352 1.784 0.468807 0.502347 0.00618632 0 0 0 0 0 0 2543.02 19 
211 1 C 69.635 77.993 2.528 0.464233 0.519953 0.00876627 69.635 77.993 2.528 0.464233 0.519953 0.00876627 0 0 0 0 0 0 1917.65 15 
212 1 C 69.725 76.986 3.537 0.464833 0.51324 0.0122652 69.725 76.986 3.537 0.464833 0.51324 0.0122652 0 0 0 0 0 0 1990.72 17 
213 1 C 69.67 77.35 4.918 0.464467 0.515667 0.017054 69.67 77.35 4.918 0.464467 0.515667 0.017054 0 0 0 0 0 0 1926.53 17 
214 1 C 69.881 76.362 5.927 0.465873 0.50908 0.0205529 69.881 76.362 5.927 0.465873 0.50908 0.0205529 0 0 0 0 0 0 2141.34 18 
215 1 C 69.756 79.088 6.67 0.46504 0.527253 0.0231294 69.756 79.088 6.67 0.46504 0.527253 0.0231294 0 0 0 0 0 0 2040.83 17 
216 1 C 69.636 78.085 7.679 0.46424 0.520567 0.0266282 69.636 78.085 7.679 0.46424 0.520567 0.0266282 0 0 0 0 0 0 1926.7 16 
268 1 C 70.151 75.678 3.165 0.467673 0.50452 0.0109752 70.151 75.678 3.165 0.467673 0.50452 0.0109752 0 0 0 0 0 0 2320.58 19 
270 1 C 70.463 75.115 5.555 0.469753 0.500767 0.0192629 70.463 75.115 5.555 0.469753 0.500767 0.0192629 0 0 0 0 0 0 2631.37 18 
272 1 C 69.783 76.717 7.308 0.46522 0.511447 0.0253417 69.783 76.717 7.308 0.46522 0.511447 0.0253417 0 0 0 0 0 0 1969 18 
273 1 C 70.112 75.761 8.317 0.467413 0.505073 0.0288406 70.112 75.761 8.317 0.467413 0.505073 0.0288406 0 0 0 0 0 0 2345.7 18 
3627 3 C 72.5754 78.2924 1.68367 0.483836 0.521949 0.00583843 72.5754 78.2924 1.68367 0.483836 0.521949 0.00583843 0 0 0 -0.0028729 0.00740528 0.00336042 5.21189 11 
3654 3 C 72.7413 78.4489 7.23409 0.484942 0.522993 0.0250854 72.7413 78.4489 7.23409 0.484942 0.522993 0.0250854 0 0 0 0.00686545 0.00220918 -0.00232698 5.58839 12 
3628 2 C 72.0844 78.2699 2.50502 0.480562 0.521799 0.0086866 72.0844 78.2699 2.50502 0.480562 0.521799 0.0086866 0 0 0 0.0192156 0.00952887 0.0166055 9.66347 22 
3640 2 C 72.4331 78.7339 5.37318 0.482887 0.524893 0.0186324 72.4331 78.7339 5.37318 0.482887 0.524893 0.0186324 0 0 0 -0.000634796 0.000232086 -0.0012225 9.10696 17 
3639 3 C 72.7162 78.4807 4.49453 0.484774 0.523205 0.0155855 72.7162 78.4807 4.49453 0.484774 0.523205 0.0155855 0 0 0 -0.000843805 -0.00280818 -0.000419424 5.46198 11 
3655 2 C 73.0802 77.557 7.15725 0.487201 0.517047 0.024819 73.0802 77.557 7.15725 0.487201 0.517047 0.024819 0 0 0 -0.00766681 -0.00426897 0.00862432 10.3687 19 
3641 2 C 73.1035 77.6128 4.60795 0.487357 0.517419 0.0159788 73.1035 77.6128 4.60795 0.487357 0.517419 0.0159788 0 0 0 -0.00157725 -0.00277847 0.00234882 10.7385 23 
5078 2 C 73.3856 76.6365 1.60592 0.489237 0.51091 0.00556879 73.3856 76.6365 289.984 0.489237 0.51091 1.00557 0 0 1 -0.015644 -0.012225 -0.00483295 9.62428 19 
3629 2 C 73.1175 79.0785 1.74961 0.48745 0.52719 0.00606706 73.1175 79.0785 1.74961 0.48745 0.52719 0.00606706 0 0 0 0.0158962 -0.00501217 -0.00349356 10.1926 21 
3637 2 C 73.7045 79.8285 4.46396 0.491363 0.53219 0.0154795 73.7045 79.8285 4.46396 0.491363 0.53219 0.0154795 0 0 0 -0.00535731 0.0101009 -0.0229671 8.10829 18 
3653 2 C 74.2019 79.6757 7.45029 0.494679 0.531171 0.0258352 74.2019 79.6757 7.45029 0.494679 0.531171 0.0258352 0 0 0 -0.0049643 0.00774749 -0.0100675 10.3779 20 
3651 3 C 74.8642 80.3302 7.67199 0.499095 0.535535 0.0266039 74.8642 80.3302 7.67199 0.499095 0.535535 0.0266039 0 0 0 0.00036943 0.000690472 -0.00511618 6.80187 12 
3638 2 C 74.2593 80.7361 5.54116 0.495062 0.538241 0.0192149 74.2593 80.7361 5.54116 0.495062 0.538241 0.0192149 0 0 0 -0.0199583 -0.0133092 0.00432925 9.49514 19 
3636 3 C 74.3925 80.4728 4.63058 0.49595 0.536485 0.0160573 74.3925 80.4728 4.63058 0.49595 0.536485 0.0160573 0 0 0 0.000428661 -0.00308166 0.00433057 5.29893 12 
3624 3 C 74.6229 80.0733 2.02338 0.497486 0.533822 0.00701643 74.6229 80.0733 2.02338 0.497486 0.533822 0.00701643 0 0 0 0.00412406 0.00290631 0.00550407 5.34732 12 
3626 2 C 74.5446 80.4777 2.88741 0.496964 0.536518 0.0100126 74.5446 80.4777 2.88741 0.496964 0.536518 0.0100126 0 0 0 0.00996864 -0.00490251 0.00969022 8.99023 20 
3656 2 C 72.4068 78.5023 8.12935 0.482712 0.523349 0.0281899 72.4068 78.5023 8.12935 0.482712 0.523349 0.0281899 0 0 0 -0.00449839 0.0143744 -0.0072913 10.3033 20 
3652 2 C 75.6547 79.8208 7.85042 0.504365 0.532138 0.0272227 75.6547 79.8208 7.85042 0.504365 0.532138 0.0272227 0 0 0 -0.0131091 -0.00939561 0.0259647 8.8528 18 
3644 2 C 73.9858 75.5277 3.1902 0.493238 0.503518 0.0110626 73.9858 75.5277 3.1902 0.493238 0.503518 0.0110626 0 0 0 0.0192584 0.0172068 -0.00590244 9.26167 20 
3666 3 C 74.0955 76.0849 6.84109 0.49397 0.507233 0.0237226 74.0955 76.0849 6.84109 0.49397 0.507233 0.0237226 0 0 0 0.000395534 0.00245634 -0.00145077 5.72135 9 
3667 2 C 74.0621 75.8773 5.90727 0.493747 0.505849 0.0204845 74.0621 75.8773 5.90727 0.493747 0.505849 0.0204845 0 0 0 -0.0139217 0.00800323 -0.0021698 9.66221 18 
3642 3 C 73.9523 75.9199 4.06271 0.493015 0.506133 0.0140881 73.9523 75.9199 4.06271 0.493015 0.506133 0.0140881 0 0 0 -0.00128498 -0.00182494 0.00188123 6.30662 13 
5076 3 C 73.9054 75.8806 1.33289 0.492703 0.505871 0.00462203 73.9054 75.8806 289.711 0.492703 0.505871 1.00462 0 0 1 0.00386325 -0.00148037 0.00256596 5.69786 12 
5077 2 C 73.64 75.7213 0.42715 0.490933 0.504808 0.00148122 73.64 75.7213 288.805 0.490933 0.504808 1.00148 0 0 1 0.0133245 -0.0126702 0.00177218 10.0727 20 
3625 2 C 75.512 79.7191 2.00392 0.503413 0.531461 0.00694893 75.512 79.7191 2.00392 0.503413 0.531461 0.00694893 0 0 0 0.00673813 0.0101277 -0.00676082 10.5086 21 
3649 2 C 75.861 79.3788 4.76852 0.50574 0.529192 0.0165357 75.861 79.3788 4.76852 0.50574 0.529192 0.0165357 0 0 0 0.0027033 -0.00163969 0.000962206 9.32933 19 
3668 2 C 75.0283 76.1842 7.03158 0.500189 0.507895 0.0243832 75.0283 76.1842 7.03158 0.500189 0.507895 0.0243832 0 0 0 0.00337448 0.000270127 -0.0149346 10.2589 21 
3643 2 C 74.8508 76.2022 4.23355 0.499006 0.508015 0.0146806 74.8508 76.2022 4.23355 0.499006 0.508015 0.0146806 0 0 0 -0.0099844 0.015221 0.0196525 7.93691 18 
3631 2 C 75.6035 76.328 1.81544 0.504023 0.508853 0.00629535 75.6035 76.328 1.81544 0.504023 0.508853 0.00629535 0 0 0 0.00798755 0.00619568 -0.0106078 9.7997 22 
3661 2 C 77.2537 75.8491 7.01939 0.515025 0.505661 0.0243409 77.2537 75.8491 7.01939 0.515025 0.505661 0.0243409 0 0 0 0.0196533 0.0112243 0.00280076 9.57057 19 
3632 2 C 76.8456 75.6832 1.23807 0.512304 0.504555 0.00429322 76.8456 75.6832 1.23807 0.512304 0.504555 0.00429322 0 0 0 0.00833444 0.00546506 -0.0090468 10.4998 22 
3630 3 C 76.5276 76.1632 2.00274 0.510184 0.507755 0.00694484 76.5276 76.1632 2.00274 0.510184 0.507755 0.00694484 0 0 0 0.00471981 -0.00483515 -0.00408979 5.77216 13 
3647 2 C 76.7698 76.0235 3.97898 0.511799 0.506823 0.0137978 76.7698 76.0235 3.97898 0.511799 0.506823 0.0137978 0 0 0 -0.0010144 0.00971659 -0.0067552 9.6282 22 
3645 3 C 76.4273 76.3146 4.82411 0.509515 0.508764 0.0167284 76.4273 76.3146 4.82411 0.509515 0.508764 0.0167284 0 0 0 -0.000377279 0.000938901 -0.00348068 6.14055 12 
3660 3 C 76.7714 76.3988 7.63702 0.511809 0.509325 0.0264827 76.7714 76.3988 7.63702 0.511809 0.509325 0.0264827 0 0 0 2.48094e-05 -5.73289e-05 -0.00248669 4.67685 8 
3646 2 C 76.5614 77.2623 4.82385 0.510409 0.515082 0.0167275 76.5614 77.2623 4.82385 0.510409 0.515082 0.0167275 0 0 0 0.0356106 -0.00421062 0.0225784 9.99031 21 
3663 3 C 77.1355 79.0915 7.96797 0.514237 0.527277 0.0276303 77.1355 79.0915 7.96797 0.514237 0.527277 0.0276303 0 0 0 -0.00977816 -0.00438249 0.00481935 5.60512 11 
3650 2 C 76.8795 79.3991 5.88844 0.51253 0.529327 0.0204192 76.8795 79.3991 5.88844 0.51253 0.529327 0.0204192 0 0 0 0.00834513 0.00405953 -0.00427109 10.7653 20 
3648 3 C 76.7389 79.0746 4.99897 0.511593 0.527164 0.0173348 76.7389 79.0746 4.99897 0.511593 0.527164 0.0173348 0 0 0 0.00395481 -0.000267577 -0.00199154 5.45804 10 
3622 2 C 77.0017 78.9856 3.35011 0.513345 0.526571 0.0116171 77.0017 78.9856 3.35011 0.513345 0.526571 0.0116171 0 0 0 -0.0281337 -0.010304 -1.24486e-05 8.78995 20 
3621 3 C 77.133 79.0119 2.40233 0.51422 0.526746 0.00833048 77.133 79.0119 2.40233 0.51422 0.526746 0.00833048 0 0 0 0.00415428 -0.0038336 0.00454955 6.35868 13 
3664 2 C 76.8814 78.1755 7.85572 0.512543 0.52117 0.0272411 76.8814 78.1755 7.85572 0.512543 0.52117 0.0272411 0 0 0 0.0136577 -0.0117591 0.0123302 10.1287 19 
3623 2 C 77.0957 78.0952 2.12933 0.513971 0.520635 0.00738382 77.0957 78.0952 2.12933 0.513971 0.520635 0.00738382 0 0 0 -0.0256381 0.0011598 -0.00820252 10.636 20 
1 1 C 80.209 78.477 0.457 0.534727 0.52318 0.00158473 80.209 78.477 0.457 0.534727 0.52318 0.00158473 0 0 0 0 0 0 1929.87 17 
2 1 C 80.015 79.469 1.466 0.533433 0.529793 0.00508361 80.015 79.469 1.466 0.533433 0.529793 0.00508361 0 0 0 0 0 0 2117.39 17 
3 1 C 80.217 78.386 5.608 0.53478 0.522573 0.0194467 80.217 78.386 5.608 0.53478 0.522573 0.0194467 0 0 0 0 0 0 1921.91 18 
4 1 C 79.455 80.726 1.094 0.5297 0.538173 0.00379363 79.455 80.726 1.094 0.5297 0.538173 0.00379363 0 0 0 0 0 0 2584.37 16 
6 1 C 80.107 79.113 2.847 0.534047 0.52742 0.00987246 80.107 79.113 2.847 0.534047 0.52742 0.00987246 0 0 0 0 0 0 1980.56 17 
7 1 C 79.795 80.073 3.856 0.531967 0.53382 0.0133713 79.795 80.073 3.856 0.531967 0.53382 0.0133713 0 0 0 0 0 0 2325.6 17 
8 1 C 79.929 79.731 5.236 0.53286 0.53154 0.0181567 79.929 79.731 5.236 0.53286 0.53154 0.0181567 0 0 0 0 0 0 2095.51 17 
9 1 C 79.503 80.647 6.246 0.53002 0.537647 0.0216591 79.503 80.647 6.246 0.53002 0.537647 0.0216591 0 0 0 0 0 0 2656.52 16 
10 1 C 80.234 78.018 6.989 0.534893 0.52012 0.0242356 80.234 78.018 6.989 0.534893 0.52012 0.0242356 0 0 0 0 0 0 1912.89 19 
11 1 C 80.127 79.023 7.998 0.53418 0.52682 0.0277344 80.127 79.023 7.998 0.53418 0.52682 0.0277344 0 0 0 0 0 0 2034.94 17 
22 1 C 79.678 80.323 7.626 0.531187 0.535487 0.0264445 79.678 80.323 7.626 0.531187 0.535487 0.0264445 0 0 0 0 0 0 2344.48 16 
23 1 C 79.143 81.181 8.635 0.52762 0.541207 0.0299433 79.143 81.181 8.635 0.52762 0.541207 0.0299433 0 0 0 0 0 0 3115.62 16 
489 1 C 80.165 77.102 0.828 0.534433 0.514013 0.00287123 80.165 77.102 0.828 0.534433 0.514013 0.00287123 0 0 0 0 0 0 1963.02 18 
491 1 C 79.605 75.455 2.581 0.5307 0.503033 0.00895006 79.605 75.455 2.581 0.5307 0.503033 0.00895006 0 0 0 0 0 0 2413.9 18 
492 1 C 79.42 75.137 3.962 0.529467 0.500913 0.0137389 79.42 75.137 3.962 0.529467 0.500913 0.0137389 0 0 0 0 0 0 2717.64 15 
493 1 C 79.874 76.039 4.971 0.532493 0.506927 0.0172378 79.874 76.039 4.971 0.532493 0.506927 0.0172378 0 0 0 0 0 0 2161.38 18 
544 1 C 80.093 76.741 2.209 0.533953 0.511607 0.00766009 80.093 76.741 2.209 0.533953 0.511607 0.00766009 0 0 0 0 0 0 2054.57 18 
545 1 C 80.23 77.742 3.218 0.534867 0.51828 0.011159 80.23 77.742 3.218 0.534867 0.51828 0.011159 0 0 0 0 0 0 1915.82 19 
546 1 C 80.202 77.375 4.599 0.53468 0.515833 0.0159478 80.202 77.375 4.599 0.53468 0.515833 0.0159478 0 0 0 0 0 0 1931.15 18 
547 1 C 79.729 75.701 6.352 0.531527 0.504673 0.0220266 79.729 75.701 6.352 0.531527 0.504673 0.0220266 0 0 0 0 0 0 2373.14 16 
548 1 C 80.071 76.652 7.361 0.533807 0.511013 0.0255255 80.071 76.652 7.361 0.533807 0.511013 0.0255255 0 0 0 0 0 0 2035.23 18 
549 1 C 79.968 76.299 8.742 0.53312 0.50866 0.0303144 79.968 76.299 8.742 0.53312 0.50866 0.0303144 0 0 0 0 0 0 2157.1 19 
3662 2 C 76.9958 76.046 8.4981 0.513305 0.506974 0.0294686 76.9958 76.046 8.4981 0.513305 0.506974 0.0294686 0 0 0 0.00976385 0.0139461 0.000715047 9.14678 20 
3665 2 C 77.451 79.1442 8.87014 0.51634 0.527628 0.0307587 77.451 79.1442 8.87014 0.51634 0.527628 0.0307587 0 0 0 0.00381601 0.0075851 -0.000643852 10.6534 20 
3658 2 C 73.7567 75.6574 8.79115 0.491712 0.504383 0.0304848 73.7567 75.6574 8.79115 0.491712 0.504383 0.0304848 0 0 0 0.0125686 0.000629438 -0.00400898 10.3185 20 
38 1 C 74.554 83.245 3.378 0.497027 0.554967 0.0117138 74.554 83.245 3.378 0.497027 0.554967 0.0117138 0 0 0 0 0 0 1777.02 16 
65 1 C 73.826 83.142 0.616 0.492173 0.55428 0.00213609 73.826 83.142 0.616 0.492173 0.55428 0.00213609 0 0 0 0 0 0 1856.84 17 
66 1 C 72.863 82.837 1.625 0.485753 0.552247 0.00563497 72.863 82.837 1.625 0.485753 0.552247 0.00563497 0 0 0 0 0 0 2115.8 17 
67 1 C 73.206 82.969 3.006 0.48804 0.553127 0.0104238 73.206 82.969 3.006 0.48804 0.553127 0.0104238 0 0 0 0 0 0 1970.67 16 
68 1 C 72.287 82.55 4.015 0.481913 0.550333 0.0139227 72.287 82.55 4.015 0.481913 0.550333 0.0139227 0 0 0 0 0 0 2398.44 18 
69 1 C 74.922 83.259 4.759 0.49948 0.55506 0.0165026 74.922 83.259 4.759 0.49948 0.55506 0.0165026 0 0 0 0 0 0 1783.48 17 
70 1 C 73.916 83.16 5.768 0.492773 0.5544 0.0200015 73.916 83.16 5.768 0.492773 0.5544 0.0200015 0 0 0 0 0 0 1861.08 16 
71 1 C 74.28 83.218 7.148 0.4952 0.554787 0.0247869 74.28 83.218 7.148 0.4952 0.554787 0.0247869 0 0 0 0 0 0 1783.64 16 
72 1 C 73.294 82.999 8.157 0.488627 0.553327 0.0282858 73.294 82.999 8.157 0.488627 0.553327 0.0282858 0 0 0 0 0 0 2008.39 17 
106 1 C 71.677 82.14 1.253 0.477847 0.5476 0.00434499 71.677 82.14 1.253 0.477847 0.5476 0.00434499 0 0 0 0 0 0 2817.95 18 
107 1 C 70.943 81.446 2.262 0.472953 0.542973 0.00784387 70.943 81.446 2.262 0.472953 0.542973 0.00784387 0 0 0 0 0 0 3291.21 18 
108 1 C 71.194 81.714 3.643 0.474627 0.54476 0.0126327 71.194 81.714 3.643 0.474627 0.54476 0.0126327 0 0 0 0 0 0 3408.49 20 
110 1 C 72.612 82.723 5.396 0.48408 0.551487 0.0187116 72.612 82.723 5.396 0.48408 0.551487 0.0187116 0 0 0 0 0 0 2184.49 17 
111 1 C 71.75 82.196 6.405 0.478333 0.547973 0.0222104 71.75 82.196 6.405 0.478333 0.547973 0.0222104 0 0 0 0 0 0 2903.86 19 
112 1 C 72.052 82.406 7.786 0.480347 0.549373 0.0269993 72.052 82.406 7.786 0.480347 0.549373 0.0269993 0 0 0 0 0 0 2443.53 20 
113 1 C 71.26 81.778 8.795 0.475067 0.545187 0.0304982 71.26 81.778 8.795 0.475067 0.545187 0.0304982 0 0 0 0 0 0 3414.06 19 
5 1 C 78.848 81.533 2.103 0.525653 0.543553 0.00729251 78.848 81.533 2.103 0.525653 0.543553 0.00729251 0 0 0 0 0 0 3443.11 18 
15 1 C 77.48 82.608 0.351 0.516533 0.55072 0.00121715 77.48 82.608 0.351 0.516533 0.55072 0.00121715 0 0 0 0 0 0 2297.87 18 
16 1 C 77.796 82.42 1.731 0.51864 0.549467 0.00600254 77.796 82.42 1.731 0.51864 0.549467 0.00600254 0 0 0 0 0 0 2552.18 17 
17 1 C 76.898 82.882 2.74 0.512653 0.552547 0.00950142 76.898 82.882 2.74 0.512653 0.552547 0.00950142 0 0 0 0 0 0 2038.05 18 
18 1 C 79.087 81.253 3.484 0.527247 0.541687 0.0120814 79.087 81.253 3.484 0.527247 0.541687 0.0120814 0 0 0 0 0 0 3070.84 17 
19 1 C 78.386 81.981 4.493 0.522573 0.54654 0.0155802 78.386 81.981 4.493 0.522573 0.54654 0.0155802 0 0 0 0 0 0 3014.39 18 
20 1 C 78.657 81.732 5.874 0.52438 0.54488 0.0203691 78.657 81.732 5.874 0.52438 0.54488 0.0203691 0 0 0 0 0 0 3479.76 16 
21 1 C 77.873 82.37 6.883 0.519153 0.549133 0.023868 77.873 82.37 6.883 0.519153 0.549133 0.023868 0 0 0 0 0 0 2542.48 17 
36 1 C 75.198 83.253 0.988 0.50132 0.55502 0.00342606 75.198 83.253 0.988 0.50132 0.55502 0.00342606 0 0 0 0 0 0 1796.61 18 
37 1 C 75.564 83.222 2.369 0.50376 0.554813 0.00821491 75.564 83.222 2.369 0.50376 0.554813 0.00821491 0 0 0 0 0 0 1826.55 17 
39 1 C 77.235 82.734 4.121 0.5149 0.55156 0.0142903 77.235 82.734 4.121 0.5149 0.55156 0.0142903 0 0 0 0 0 0 2237.83 19 
40 1 C 76.287 83.084 5.13 0.50858 0.553893 0.0177892 76.287 83.084 5.13 0.50858 0.553893 0.0177892 0 0 0 0 0 0 1893.65 18 
41 1 C 76.639 82.978 6.511 0.510927 0.553187 0.022578 76.639 82.978 6.511 0.510927 0.553187 0.022578 0 0 0 0 0 0 2027.86 18 
42 1 C 75.656 83.21 7.52 0.504373 0.554733 0.0260769 75.656 83.21 7.52 0.504373 0.554733 0.0260769 0 0 0 0 0 0 1814.2 18 
43 1 C 78.172 82.155 8.264 0.521147 0.5477 0.0286568 78.172 82.155 8.264 0.521147 0.5477 0.0286568 0 0 0 0 0 0 2878.06 17 
73 1 C 76.018 83.147 8.901 0.506787 0.554313 0.0308657 76.018 83.147 8.901 0.506787 0.554313 0.0308657 0 0 0 0 0 0 1860.12 17 
330 1 C 71.279 74.123 10.335 0.475193 0.494153 0.0358384 71.279 74.123 10.335 0.475193 0.494153 0.0358384 0 0 0 0 0 0 3679.65 18 
331 1 C 72.073 73.499 11.344 0.480487 0.489993 0.0393373 72.073 73.499 11.344 0.480487 0.489993 0.0393373 0 0 0 0 0 0 2833.1 16 
333 1 C 70.783 74.666 13.097 0.471887 0.497773 0.0454161 70.783 74.666 13.097 0.471887 0.497773 0.0454161 0 0 0 0 0 0 3166.71 17 
334 1 C 70.564 74.962 14.477 0.470427 0.499747 0.0502015 70.564 74.962 14.477 0.470427 0.499747 0.0502015 0 0 0 0 0 0 2757.37 17 
335 1 C 71.213 74.187 15.486 0.474753 0.49458 0.0537004 71.213 74.187 15.486 0.474753 0.49458 0.0537004 0 0 0 0 0 0 3672.39 19 
386 1 C 73.672 72.812 9.591 0.491147 0.485413 0.0332584 73.672 72.812 9.591 0.491147 0.485413 0.0332584 0 0 0 0 0 0 2150 18 
387 1 C 73.318 72.912 10.972 0.488787 0.48608 0.0380473 73.318 72.912 10.972 0.488787 0.48608 0.0380473 0 0 0 0 0 0 2294.21 17 
388 1 C 74.305 72.697 11.981 0.495367 0.484647 0.0415462 74.305 72.697 11.981 0.495367 0.484647 0.0415462 0 0 0 0 0 0 2081.61 16 
389 1 C 71.771 73.708 12.725 0.478473 0.491387 0.0441261 71.771 73.708 12.725 0.478473 0.491387 0.0441261 0 0 0 0 0 0 3241.8 18 
390 1 C 72.635 73.185 13.734 0.484233 0.4879 0.047625 72.635 73.185 13.734 0.484233 0.4879 0.047625 0 0 0 0 0 0 2463.91 16 
391 1 C 72.309 73.356 15.115 0.48206 0.48904 0.0524138 72.309 73.356 15.115 0.48206 0.48904 0.0524138 0 0 0 0 0 0 2744.39 16 
392 1 C 73.231 72.941 16.124 0.488207 0.486273 0.0559127 73.231 72.941 16.124 0.488207 0.486273 0.0559127 0 0 0 0 0 0 2248.84 17 
393 1 C 70.96 74.454 16.867 0.473067 0.49636 0.0584892 70.96 74.454 16.867 0.473067 0.49636 0.0584892 0 0 0 0 0 0 3326.38 18 
394 1 C 71.697 73.763 17.876 0.47798 0.491753 0.0619881 71.697 73.763 17.876 0.47798 0.491753 0.0619881 0 0 0 0 0 0 3248.08 17 
446 1 C 73.941 72.754 13.362 0.49294 0.485027 0.046335 73.941 72.754 13.362 0.49294 0.485027 0.046335 0 0 0 0 0 0 2108.88 18 
447 1 C 74.947 72.66 14.371 0.499647 0.4844 0.0498339 74.947 72.66 14.371 0.499647 0.4844 0.0498339 0 0 0 0 0 0 2026.08 17 
448 1 C 74.58 72.672 15.752 0.4972 0.48448 0.0546228 74.58 72.672 15.752 0.4972 0.48448 0.0546228 0 0 0 0 0 0 2048.47 18 
450 1 C 72.886 73.071 17.505 0.485907 0.48714 0.0607016 72.886 73.071 17.505 0.485907 0.48714 0.0607016 0 0 0 0 0 0 2472.6 16 
442 1 C 75.039 72.661 9.22 0.50026 0.484407 0.0319719 75.039 72.661 9.22 0.50026 0.484407 0.0319719 0 0 0 0 0 0 2022.68 18 
443 1 C 76.043 72.777 10.229 0.506953 0.48518 0.0354708 76.043 72.777 10.229 0.506953 0.48518 0.0354708 0 0 0 0 0 0 2127.86 18 
444 1 C 75.681 72.712 11.609 0.50454 0.484747 0.0402562 75.681 72.712 11.609 0.50454 0.484747 0.0402562 0 0 0 0 0 0 2110.19 19 
445 1 C 76.663 72.949 12.619 0.511087 0.486327 0.0437585 76.663 72.949 12.619 0.511087 0.486327 0.0437585 0 0 0 0 0 0 2348.18 19 
449 1 C 75.59 72.7 16.761 0.503933 0.484667 0.0581216 75.59 72.7 16.761 0.503933 0.484667 0.0581216 0 0 0 0 0 0 2113.13 18 
498 1 C 77.34 73.237 9.857 0.5156 0.488247 0.0341808 77.34 73.237 9.857 0.5156 0.488247 0.0341808 0 0 0 0 0 0 2517.98 18 
499 1 C 78.192 73.779 10.866 0.52128 0.49186 0.0376797 78.192 73.779 10.866 0.52128 0.49186 0.0376797 0 0 0 0 0 0 3358.53 16 
500 1 C 77.894 73.563 12.247 0.519293 0.49042 0.0424686 77.894 73.563 12.247 0.519293 0.49042 0.0424686 0 0 0 0 0 0 2912.22 17 
501 1 C 78.675 74.205 13.256 0.5245 0.4947 0.0459674 78.675 74.205 13.256 0.5245 0.4947 0.0459674 0 0 0 0 0 0 3666.03 18 
502 1 C 76.311 72.842 13.999 0.50874 0.485613 0.0485439 76.311 72.842 13.999 0.50874 0.485613 0.0485439 0 0 0 0 0 0 2128.45 18 
503 1 C 77.257 73.196 15.008 0.515047 0.487973 0.0520428 77.257 73.196 15.008 0.515047 0.487973 0.0520428 0 0 0 0 0 0 2531.81 17 
504 1 C 76.921 73.046 16.389 0.512807 0.486973 0.0568317 76.921 73.046 16.389 0.512807 0.486973 0.0568317 0 0 0 0 0 0 2354.39 17 
505 1 C 77.818 73.512 17.398 0.518787 0.49008 0.0603305 77.818 73.512 17.398 0.518787 0.49008 0.0603305 0 0 0 0 0 0 3018.22 17 
551 1 C 79.159 74.759 10.494 0.527727 0.498393 0.0363897 79.159 74.759 10.494 0.527727 0.498393 0.0363897 0 0 0 0 0 0 3106.19 18 
555 1 C 78.405 73.954 14.637 0.5227 0.493027 0.0507563 78.405 73.954 14.637 0.5227 0.493027 0.0507563 0 0 0 0 0 0 3486.7 17 
556 1 C 79.102 74.686 15.646 0.527347 0.497907 0.0542552 79.102 74.686 15.646 0.527347 0.497907 0.0542552 0 0 0 0 0 0 2994.4 16 
557 1 C 78.865 74.404 17.027 0.525767 0.496027 0.059044 78.865 74.404 17.027 0.525767 0.496027 0.059044 0 0 0 0 0 0 3604.35 17 
3715 2 C 74.1946 75.7562 17.4648 0.494631 0.505041 0.0605621 74.1946 75.7562 17.4648 0.494631 0.505041 0.0605621 0 0 0 -0.0170191 -0.0112597 0.00015369 10.0452 19 
163 1 C 69.963 79.794 9.432 0.46642 0.53196 0.0327071 69.963 79.794 9.432 0.46642 0.53196 0.0327071 0 0 0 0 0 0 2122.73 17 
167 1 C 70.449 80.782 13.575 0.46966 0.538547 0.0470736 70.449 80.782 13.575 0.46966 0.538547 0.0470736 0 0 0 0 0 0 2614.68 18 
217 1 C 69.658 78.452 9.06 0.464387 0.523013 0.0314171 69.658 78.452 9.06 0.464387 0.523013 0.0314171 0 0 0 0 0 0 1912.35 16 
218 1 C 69.66 77.442 10.069 0.4644 0.51628 0.034916 69.66 77.442 10.069 0.4644 0.51628 0.034916 0 0 0 0 0 0 1940.6 17 
219 1 C 70.102 80.134 10.813 0.467347 0.534227 0.0374959 70.102 80.134 10.813 0.467347 0.534227 0.0374959 0 0 0 0 0 0 2316.32 17 
220 1 C 69.777 79.177 11.822 0.46518 0.527847 0.0409948 69.777 79.177 11.822 0.46518 0.527847 0.0409948 0 0 0 0 0 0 1993.82 16 
221 1 C 69.874 79.532 13.203 0.465827 0.530213 0.0457837 69.874 79.532 13.203 0.465827 0.530213 0.0457837 0 0 0 0 0 0 2096.99 17 
222 1 C 69.667 78.543 14.212 0.464447 0.52362 0.0492825 69.667 78.543 14.212 0.464447 0.52362 0.0492825 0 0 0 0 0 0 1922.95 16 
223 1 C 70.656 81.087 14.955 0.47104 0.54058 0.051859 70.656 81.087 14.955 0.47104 0.54058 0.051859 0 0 0 0 0 0 2993.28 18 
224 1 C 70.14 80.218 15.964 0.4676 0.534787 0.0553579 70.14 80.218 15.964 0.4676 0.534787 0.0553579 0 0 0 0 0 0 2307.85 18 
225 1 C 70.308 80.545 17.345 0.46872 0.536967 0.0601468 70.308 80.545 17.345 0.46872 0.536967 0.0601468 0 0 0 0 0 0 2569.73 17 
274 1 C 69.971 76.101 9.698 0.466473 0.50734 0.0336295 69.971 76.101 9.698 0.466473 0.50734 0.0336295 0 0 0 0 0 0 2164.69 19 
275 1 C 70.414 75.193 10.707 0.469427 0.501287 0.0371284 70.414 75.193 10.707 0.469427 0.501287 0.0371284 0 0 0 0 0 0 2685.32 18 
276 1 C 69.637 77.809 11.45 0.464247 0.518727 0.0397048 69.637 77.809 11.45 0.464247 0.518727 0.0397048 0 0 0 0 0 0 1900.85 17 
277 1 C 69.762 76.806 12.459 0.46508 0.51204 0.0432037 69.762 76.806 12.459 0.46508 0.51204 0.0432037 0 0 0 0 0 0 2003.72 17 
278 1 C 69.694 77.168 13.84 0.464627 0.514453 0.0479926 69.694 77.168 13.84 0.464627 0.514453 0.0479926 0 0 0 0 0 0 1955.23 17 
279 1 C 69.94 76.188 14.849 0.466267 0.50792 0.0514914 69.94 76.188 14.849 0.466267 0.50792 0.0514914 0 0 0 0 0 0 2146.57 18 
280 1 C 69.72 78.907 15.593 0.4648 0.526047 0.0540714 69.72 78.907 15.593 0.4648 0.526047 0.0540714 0 0 0 0 0 0 1998.63 16 
281 1 C 69.635 77.901 16.602 0.464233 0.51934 0.0575703 69.635 77.901 16.602 0.464233 0.51934 0.0575703 0 0 0 0 0 0 1911.01 17 
282 1 C 69.644 78.268 17.983 0.464293 0.521787 0.0623591 69.644 78.268 17.983 0.464293 0.521787 0.0623591 0 0 0 0 0 0 1910.75 16 
332 1 C 70.233 75.513 12.087 0.46822 0.50342 0.0419137 70.233 75.513 12.087 0.46822 0.50342 0.0419137 0 0 0 0 0 0 2399.04 18 
336 1 C 69.829 76.538 16.23 0.465527 0.510253 0.0562803 69.829 76.538 16.23 0.465527 0.510253 0.0562803 0 0 0 0 0 0 2040.32 18 
337 1 C 70.191 75.595 17.239 0.46794 0.503967 0.0597792 70.191 75.595 17.239 0.46794 0.503967 0.0597792 0 0 0 0 0 0 2459.11 17 
3704 2 C 72.327 78.4235 15.0612 0.48218 0.522824 0.0522273 72.327 78.4235 15.0612 0.48218 0.522824 0.0522273 0 0 0 0.00200331 -0.0105958 -0.00431529 9.38839 16 
3702 3 C 72.6877 78.3213 15.9419 0.484585 0.522142 0.0552813 72.6877 78.3213 15.9419 0.484585 0.522142 0.0552813 0 0 0 0.00088066 0.00460811 -0.00208452 5.45842 11 