
processors 1 1 16
package omp 1
using multi-threaded neighbor list subroutines

units 	real
dimension	3
boundary	p p p
atom_style	full
#atom_modify	id yes

#--------------------------------------------------------------------ATOM-DEFINITION------------------------------------------------------------#
read_data ../../../data_file/${label}.data
read_data ../../../data_file/C_25_7_14.data
  orthogonal box = (0 0 0) to (150 150 250)
  1 by 1 by 16 MPI processor grid
  reading atoms ...
  5783 atoms
  scanning bonds ...
  2 = max bonds/atom
  scanning angles ...
  1 = max angles/atom
  reading bonds ...
  850 bonds
  reading angles ...
  425 angles
  2 = max # of 1-2 neighbors
  1 = max # of 1-3 neighbors
  1 = max # of 1-4 neighbors
  2 = max # of special neighbors
  special bonds CPU = 0.00162387 secs
  read_data CPU = 0.157204 secs
# 1 C, 2 H, 3 O.

#-----------------------------------------------------------------------SETTINGS----------------------------------------------------------------#
#THE UNITS OF SIC TERSOFF WERE CHANGED FROM METAL TO REAL
#Interactions H - O tip4p/ice
# using Lorentz-Berthelot mixing rules

#Non-bonded interactions:
pair_style   lj/cut/tip4p/long 3 2 1 1 0.1577 10

#for lj/cut: epsilon sigma cutoff1 cutoff2
pair_coeff 1 1  0.0 0.0
pair_coeff 1 2  0.0 0.0
pair_coeff 1 3  0.108505  3.2834  #for C-O
pair_coeff 2 2  0.0 0.0
pair_coeff 2 3  0.0 0.0
pair_coeff 3 3  0.21084   3.1668#O-O

bond_style harmonic
#K can be any value since it is fixed by fix shake
bond_coeff 1 5000 0.9572

angle_style harmonic
angle_coeff 1 5000 104.52


#Box size has to be included in data file
#all the anchors are here:

group	5Water_atoms	type	2 3
1275 atoms in group 5Water_atoms

group	6CNT_atoms	type 1
4508 atoms in group 6CNT_atoms

group 8Hydrogen type 2
850 atoms in group 8Hydrogen

group 7Oxygen type 3
425 atoms in group 7Oxygen



kspace_style pppm/tip4p 0.00001
timestep	1.0


#---------------------------------------------------------------------------Variables-------------------------------------------------------------------------#


compute temwater 5Water_atoms temp
compute temcnt 6CNT_atoms temp

compute ke_H2O 5Water_atoms ke
compute pe_H2O 5Water_atoms pe/atom
compute pe_sumH2O 5Water_atoms reduce sum c_pe_H2O

compute ke_CNT 6CNT_atoms ke
compute pe_CNT 6CNT_atoms pe/atom
compute pe_sumCNT 6CNT_atoms reduce sum c_pe_CNT



#special_bonds lj 1e-50   1e-50   1e-50
#dump	     5 all movie 10000 movie.mpg type type zoom 20.0 adiam 1.0 center s 0.5 0.5 0.5 view 0.0 0.0
dump	     adump1 all movie 100 movie1.mpg type type box yes 0.01 zoom 6.0




thermo_style custom pe ke etotal c_ke_H2O c_ke_CNT c_pe_sumH2O c_pe_sumCNT temp c_temwater c_temcnt press pxx pzz ecoul elong step
thermo 2000

fix rigidtube  6CNT_atoms setforce 0.0 0.0 0.0


min_style cg
minimize	0.0 0.0 10000 10000
WARNING: Using 'neigh_modify every 1 delay 0 check yes' setting during minimization (../min.cpp:168)
PPPM initialization ...
  extracting TIP4P info from pair style
  using 12-bit tables for long-range coulomb (../kspace.cpp:323)
  G vector (1/distance) = 0.243877
  grid = 64 64 96
  stencil order = 5
  estimated absolute RMS force accuracy = 0.00381426
  estimated relative force accuracy = 1.14865e-05
  using double precision KISS FFT
  3d grid and FFT values/proc = 52371 24576
No /omp style for force computation currently active
Neighbor list info ...
  update every 1 steps, delay 0 steps, check yes
  max neighbors/atom: 2000, page size: 100000
  master list distance cutoff = 12.3154
  ghost atom cutoff = 12.3154
  binsize = 6.1577, bins = 25 25 41
  1 neighbor lists, perpetual/occasional/extra = 1 0 0
  (1) pair lj/cut/tip4p/long, perpetual
      attributes: half, newton on, omp
      pair build: half/bin/newton/omp
      stencil: half/bin/3d/newton
      bin: standard
Per MPI rank memory allocation (min/avg/max) = 15.57 | 15.6 | 15.96 Mbytes
PotEng KinEng TotEng c_ke_H2O c_ke_CNT c_pe_sumH2O c_pe_sumCNT Temp c_temwater c_temcnt Press Pxx Pzz E_coul E_long Step 
   8999.8233            0    8999.8233            0            0    9474.2852    -474.4619            0            0            0     489.8837   -16.505569    1499.9062    40289.947   -40297.855        0 
  -5624.4772            0   -5624.4772            0            0   -5261.4972      -362.98            0            0            0   -21.568945   -19.432962   -25.625849    34450.594   -40438.579     2000 
  -5644.5785            0   -5644.5785            0            0   -5281.8318   -362.74673            0            0            0   -20.873796   -18.552476    -24.98575    34411.845   -40439.495     2165 
Loop time of 65.5043 on 16 procs for 2165 steps with 5783 atoms

84.4% CPU use with 16 MPI tasks x 1 OpenMP threads

Minimization stats:
  Stopping criterion = linesearch alpha is zero
  Energy initial, next-to-last, final = 
         8999.82327766     -5644.57852369     -5644.57852369
  Force two-norm initial, final = 46531.5 56.4875
  Force max component initial, final = 14747.8 19.6657
  Final line search alpha, max atom move = 3.36448e-12 6.61647e-11
  Iterations, force evaluations = 2165 4407

MPI task timing breakdown:
Section |  min time  |  avg time  |  max time  |%varavg| %total
---------------------------------------------------------------
Pair    | 7.6561     | 8.7758     | 14.654     |  54.8 | 13.40
Bond    | 0.018247   | 0.019987   | 0.023214   |   0.9 |  0.03
Kspace  | 49.89      | 55.782     | 56.898     |  21.8 | 85.16
Neigh   | 0.022857   | 0.023099   | 0.023272   |   0.1 |  0.04
Comm    | 0.26637    | 0.27455    | 0.284      |   0.9 |  0.42
Output  | 0.10256    | 0.14437    | 0.39078    |  18.1 |  0.22
Modify  | 0.039404   | 0.042919   | 0.048481   |   1.2 |  0.07
Other   |            | 0.4414     |            |       |  0.67

Nlocal:    361.438 ave 529 max 330 min
Histogram: 6 9 0 0 0 0 0 0 0 1
Nghost:    571.125 ave 724 max 530 min
Histogram: 4 9 1 0 0 0 0 1 0 1
Neighs:    61259.3 ave 102159 max 54767 min
Histogram: 11 3 0 0 1 0 0 0 0 1

Total # of neighbors = 980149
Ave neighs/atom = 169.488
Ave special neighs/atom = 0.440948
Neighbor list builds = 14
Dangerous builds = 0


#Fix the bonds and angles for water (according water models)
fix forbondsandangles 5Water_atoms shake 0.0001 500 0 b 1 a 1
  0 = # of size 2 clusters
  0 = # of size 3 clusters
  0 = # of size 4 clusters
  425 = # of frozen angles
  find clusters CPU = 0.000475883 secs



#===========-==================-=============================-==============================-===============================-=======================#

fix lang1 5Water_atoms	langevin 0.0 10.0 5.0 40396
fix nve1 5Water_atoms	nve

run_style	verlet
run 20000
PPPM initialization ...
  extracting TIP4P info from pair style
  using 12-bit tables for long-range coulomb (../kspace.cpp:323)
  G vector (1/distance) = 0.243877
  grid = 64 64 96
  stencil order = 5
  estimated absolute RMS force accuracy = 0.00381426
  estimated relative force accuracy = 1.14865e-05
  using double precision KISS FFT
  3d grid and FFT values/proc = 52371 24576
No /omp style for force computation currently active
Per MPI rank memory allocation (min/avg/max) = 15.57 | 15.62 | 16.34 Mbytes
PotEng KinEng TotEng c_ke_H2O c_ke_CNT c_pe_sumH2O c_pe_sumCNT Temp c_temwater c_temcnt Press Pxx Pzz E_coul E_long Step 
  -5668.1213            0   -5668.1213            0            0   -5305.3745   -362.74673            0            0            0   -20.651564   -18.493758   -24.517404    34411.845   -40439.495     2165 
  -5635.3279    2.4804287   -5632.8475    2.4804287            0   -5271.7998   -363.52811   0.15533553   0.98013243            0   -21.076683   -18.530909   -25.323338    34462.145   -40441.499     4000 
  -5643.2046    5.2416414    -5637.963    5.2416414            0   -5279.0833   -364.12133   0.32825501    2.0712156            0   -20.197606   -18.595087   -24.525058    34453.013   -40442.052     6000 
  -5650.8944    8.0363376    -5642.858    8.0363376            0   -5286.1278   -364.76658   0.50327137    3.1755297            0   -22.836607   -21.906191   -26.725917    34447.085    -40442.61     8000 
  -5664.0037    10.694119   -5653.3096    10.694119            0   -5298.8834   -365.12035   0.66971353    4.2257425            0   -22.141149   -18.505497   -26.701587    34431.085    -40442.82    10000 
  -5667.0631    13.796274   -5653.2668    13.796274            0   -5302.1473   -364.91581   0.86398435    5.4515479            0   -20.024933   -18.108488   -22.799546    34408.798   -40442.524    12000 
  -5669.8874    16.383617   -5653.5038    16.383617            0   -5304.2464   -365.64096    1.0260153    6.4739271            0    -20.56842   -18.464323   -23.961345    34411.156   -40442.931    14000 
  -5666.5713    18.941653   -5647.6296    18.941653            0   -5300.1052   -366.46607     1.186211    7.4847257            0   -17.664085   -14.175769   -21.259457    34415.843   -40442.711    16000 
  -5668.9202    22.081131   -5646.8391    22.081131            0   -5301.7381   -367.18208    1.3828191    8.7252789            0   -21.622441   -20.786562   -24.398772    34421.049    -40443.46    18000 
  -5674.5471    23.911015   -5650.6361    23.911015            0   -5307.9351   -366.61197    1.4974146    9.4483512            0   -23.379224   -25.029558   -23.231444    34408.333   -40444.367    20000 
  -5674.4551    25.924804   -5648.5303    25.924804            0   -5308.7793   -365.67573     1.623527    10.244092            0   -19.876882   -20.764211   -22.168954    34380.895    -40442.65    22000 
  -5675.3815    26.829923   -5648.5516    26.829923            0    -5309.556   -365.82546    1.6802097    10.601747            0   -19.425206   -19.197864   -21.526143    34380.772   -40442.622    22165 
Loop time of 328.963 on 16 procs for 20000 steps with 5783 atoms

Performance: 5.253 ns/day, 4.569 hours/ns, 60.797 timesteps/s
85.5% CPU use with 16 MPI tasks x 1 OpenMP threads

MPI task timing breakdown:
Section |  min time  |  avg time  |  max time  |%varavg| %total
---------------------------------------------------------------
Pair    | 27.362     | 31.297     | 51.457     | 102.1 |  9.51
Bond    | 0.0074556  | 0.0094412  | 0.01181    |   1.3 |  0.00
Kspace  | 269.81     | 289.11     | 293.63     |  33.9 | 87.89
Neigh   | 0.0095665  | 0.0096234  | 0.0096636  |   0.0 |  0.00
Comm    | 1.5815     | 2.6459     | 5.1264     |  67.4 |  0.80
Output  | 0.96655    | 1.3174     | 3.1299     |  46.0 |  0.40
Modify  | 1.3856     | 1.7727     | 2.7068     |  29.7 |  0.54
Other   |            | 2.8        |            |       |  0.85

Nlocal:    361.438 ave 528 max 329 min
Histogram: 6 9 0 0 0 0 0 0 0 1
Nghost:    570.688 ave 723 max 526 min
Histogram: 3 9 2 0 0 0 0 1 0 1
Neighs:    61249.5 ave 101605 max 53990 min
Histogram: 9 5 0 0 1 0 0 0 0 1

Total # of neighbors = 979992
Ave neighs/atom = 169.461
Ave special neighs/atom = 0.440948
Neighbor list builds = 6
Dangerous builds = 0

unfix lang1

run 5000
PPPM initialization ...
  extracting TIP4P info from pair style
  using 12-bit tables for long-range coulomb (../kspace.cpp:323)
  G vector (1/distance) = 0.243877
  grid = 64 64 96
  stencil order = 5
  estimated absolute RMS force accuracy = 0.00381426
  estimated relative force accuracy = 1.14865e-05
  using double precision KISS FFT
  3d grid and FFT values/proc = 52371 24576
No /omp style for force computation currently active
Per MPI rank memory allocation (min/avg/max) = 15.57 | 15.62 | 16.34 Mbytes
PotEng KinEng TotEng c_ke_H2O c_ke_CNT c_pe_sumH2O c_pe_sumCNT Temp c_temwater c_temcnt Press Pxx Pzz E_coul E_long Step 
  -5675.3815    26.829923   -5648.5516    26.829923            0    -5309.556   -365.82546    1.6802097    10.601747            0   -18.651423   -16.309179   -21.215132    34380.772   -40442.622    22165 
  -5740.8051     91.31259   -5649.4925     91.31259            0   -5370.9471   -369.85797    5.7184024    36.081839            0   -16.029218   -14.255823   -19.092133    34309.099   -40448.166    24000 
  -5779.6726    129.83791   -5649.8347    129.83791            0   -5412.9197   -366.75297    8.1310301     51.30498            0   -12.782889   -11.940154   -13.901503    34203.915   -40453.726    26000 
  -5815.7112    165.43924    -5650.272    165.43924            0   -5444.9917   -370.71949    10.360545    65.372717            0    -12.67885   -12.874918   -12.758915    34183.501   -40457.213    27165 
Loop time of 82.6094 on 16 procs for 5000 steps with 5783 atoms

Performance: 5.229 ns/day, 4.589 hours/ns, 60.526 timesteps/s
85.4% CPU use with 16 MPI tasks x 1 OpenMP threads

MPI task timing breakdown:
Section |  min time  |  avg time  |  max time  |%varavg| %total
---------------------------------------------------------------
Pair    | 5.8342     | 7.8234     | 13.131     |  57.5 |  9.47
Bond    | 0.0021183  | 0.0024881  | 0.0030146  |   0.6 |  0.00
Kspace  | 67.549     | 72.612     | 74.703     |  18.9 | 87.90
Neigh   | 0.098845   | 0.099394   | 0.099729   |   0.1 |  0.12
Comm    | 0.41135    | 0.69808    | 1.3427     |  35.2 |  0.85
Output  | 0.23379    | 0.32257    | 0.79609    |  24.1 |  0.39
Modify  | 0.31316    | 0.41611    | 0.68884    |  17.1 |  0.50
Other   |            | 0.6356     |            |       |  0.77

Nlocal:    361.438 ave 524 max 308 min
Histogram: 2 6 7 0 0 0 0 0 0 1
Nghost:    570.812 ave 731 max 513 min
Histogram: 2 5 7 0 0 0 0 1 0 1
Neighs:    61524.6 ave 100131 max 37285 min
Histogram: 1 0 4 5 4 0 0 1 0 1

Total # of neighbors = 984394
Ave neighs/atom = 170.222
Ave special neighs/atom = 0.440948
Neighbor list builds = 62
Dangerous builds = 0
unfix nve1


#------------------
fix lang2 5Water_atoms	langevin 10.0 ${T} 5.0 40396
fix lang2 5Water_atoms	langevin 10.0 400 5.0 40396
fix nve2 5Water_atoms	nve

run 288000
PPPM initialization ...
  extracting TIP4P info from pair style
  using 12-bit tables for long-range coulomb (../kspace.cpp:323)
  G vector (1/distance) = 0.243877
  grid = 64 64 96
  stencil order = 5
  estimated absolute RMS force accuracy = 0.00381426
  estimated relative force accuracy = 1.14865e-05
  using double precision KISS FFT
  3d grid and FFT values/proc = 52371 24576
No /omp style for force computation currently active
Per MPI rank memory allocation (min/avg/max) = 15.57 | 15.62 | 16.34 Mbytes
PotEng KinEng TotEng c_ke_H2O c_ke_CNT c_pe_sumH2O c_pe_sumCNT Temp c_temwater c_temcnt Press Pxx Pzz E_coul E_long Step 
  -5815.7112    165.43924    -5650.272    165.43924            0   -5444.9917   -370.71949    10.360545    65.372717            0   -12.677227   -12.873488   -12.756919    34183.501   -40457.213    27165 
  -5904.6965    30.141682   -5874.5548    30.141682            0   -5533.2481    -371.4484    1.8876068    11.910376            0   -15.775832   -15.118565   -13.559139    34074.154   -40457.604    28000 
  -5907.7533    38.130329    -5869.623    38.130329            0   -5535.6076   -372.14566    2.3878916    15.067061            0   -11.790965   -9.2296957   -12.377954    34069.005   -40458.309    30000 
   -5910.262    47.173315   -5863.0886    47.173315            0   -5538.2647   -371.99728    2.9542038    18.640365            0   -16.157454    -15.94562   -18.481735    34064.655    -40458.51    32000 
  -5904.5487    53.198269   -5851.3504    53.198269            0   -5532.7656   -371.78308    3.3315133    21.021103            0   -14.332105   -14.672068   -15.860058     34063.66   -40457.649    34000 
  -5893.3109    58.870184   -5834.4407    58.870184            0   -5521.1958   -372.11509     3.686714     23.26234            0   -11.337253   -13.703079   -9.2485068    34077.572   -40456.504    36000 
  -5893.0604    67.257873   -5825.8025    67.257873            0   -5521.0032   -372.05723    4.2119886    26.576705            0   -11.581238   -7.9416983   -13.544298    34076.934   -40458.082    38000 
  -5884.0826    72.609216   -5811.4734    72.609216            0    -5513.018   -371.06455    4.5471136    28.691269            0   -12.405501   -12.661029    -12.54344    34079.606   -40456.681    40000 
  -5879.9466    82.211884   -5797.7347    82.211884            0   -5508.3273   -371.61931    5.1484755    32.485728            0    -13.24457    -15.07065   -15.623359    34078.323   -40457.957    42000 
  -5873.6486    90.529191   -5783.1195    90.529191            0   -5502.1647   -371.48393    5.6693425    35.772282            0   -14.073934   -16.231629   -13.909035    34085.587   -40456.653    44000 
   -5860.611    95.008231   -5765.6027    95.008231            0   -5489.0312   -371.57977    5.9498399    37.542158            0   -9.2650063   -4.9592882   -12.262214    34116.499   -40457.067    46000 
  -5860.8799    106.37582   -5754.5041    106.37582            0   -5489.8908   -370.98916    6.6617293    42.034021            0   -10.723122   -6.9925305   -12.458861    34096.076   -40456.883    48000 
  -5847.2689    117.18714   -5730.0817    117.18714            0   -5476.1116   -371.15731    7.3387822    46.306073            0   -7.9689686   -9.8242821   -8.3745736    34124.047   -40456.377    50000 
  -5846.6728    117.10723   -5729.5656    117.10723            0   -5475.7504   -370.92244    7.3337778    46.274496            0   -12.270824    -9.205484   -15.419556      34133.8   -40455.084    52000 
  -5836.0746    126.20351   -5709.8711    126.20351            0   -5463.8224   -372.25227    7.9034276    49.868859            0   -10.591668   -14.906824   -4.9546051    34139.041   -40456.313    54000 
  -5837.4131    133.97561   -5703.4375    133.97561            0   -5466.2242    -371.1889    8.3901512    52.939977            0   -12.698312   -9.9712079   -15.048516    34152.375   -40455.679    56000 
  -5828.9066    137.22161   -5691.6849    137.22161            0   -5457.2777   -371.62882    8.5934307    54.222624            0   -9.5950873   -10.596355    -3.680291    34164.717   -40455.216    58000 
  -5822.2483    150.59276   -5671.6555    150.59276            0   -5451.1327   -371.11557    9.4307918    59.506185            0   -17.822793    -13.29996   -21.269254     34175.87   -40457.404    60000 
  -5814.4551    166.21412   -5648.2409    166.21412            0   -5444.3671   -370.08801    10.409071    65.678907            0   -17.315748   -15.487618   -24.152542    34181.945   -40456.731    62000 
  -5809.7438    170.16726   -5639.5765    170.16726            0   -5438.8322   -370.91154    10.656634    67.240976            0   -14.053483   -14.618192   -19.496015    34175.731   -40452.554    64000 
  -5790.1518    164.03274   -5626.1191    164.03274            0   -5418.5907   -371.56115    10.272463    64.816945            0   -8.0784057    -3.793302   -11.760362    34253.391   -40459.687    66000 
   -5793.937    181.79167   -5612.1454    181.79167            0   -5422.0961   -371.84097    11.384607    71.834321            0   -8.9677466   -9.1781731   -8.5232716    34218.188   -40456.455    68000 
  -5777.7803    184.70775   -5593.0726    184.70775            0   -5404.8952   -372.88515    11.567225    72.986601            0    -9.725501   -10.537774   -11.820821    34209.383   -40456.651    70000 
  -5769.3588    200.58634   -5568.7725    200.58634            0   -5397.9291   -371.42973    12.561613    79.260968            0    -14.99104   -13.584472   -19.410756    34241.433   -40455.477    72000 
   -5781.798    208.51544   -5573.2826    208.51544            0   -5409.9579   -371.84011    13.058168    82.394121            0   -14.824936   -17.653415    -18.09104    34225.404   -40456.344    74000 
  -5758.7633     203.9609   -5554.8024     203.9609            0   -5388.5213   -370.24202    12.772943    80.594411            0   -10.209286   -13.553489    -5.032695     34261.36   -40457.437    76000 
  -5764.2747    218.14168    -5546.133    218.14168            0   -5394.1575   -370.11716    13.661007    86.197894            0   -9.0596834   -8.1263865   -5.1600205     34253.12   -40458.209    78000 
  -5754.4027    219.35983   -5535.0429    219.35983            0   -5386.6546   -367.74808    13.737293    86.679245            0   -12.794898   -3.8111421    -14.26413     34244.93    -40455.58    80000 
  -5741.5544    236.32066   -5505.2337    236.32066            0   -5370.5949   -370.95949    14.799456    93.381255            0      -13.386    -13.24618   -10.584416    34259.343   -40456.726    82000 
   -5732.922    246.62977   -5486.2922    246.62977            0   -5361.9932   -370.92875    15.445058    97.454861            0   -11.765617   -11.875249   -7.6391259    34319.101    -40456.61    84000 
  -5738.9044    242.90812   -5495.9963    242.90812            0   -5370.2609   -368.64348    15.211992    95.984264            0   -15.484766   -12.771223   -15.877379    34318.967   -40457.444    86000 
  -5721.9903      246.076   -5475.9143      246.076            0   -5353.8715   -368.11877    15.410379     97.23604            0   -7.5665035   -7.9480905   -8.8079879    34297.099   -40459.083    88000 
  -5734.1749    264.76773   -5469.4072    264.76773            0   -5363.9697   -370.20525    16.580938    104.62201            0   -18.930505   -16.204051   -21.634855    34333.632   -40458.909    90000 
   -5712.601    260.63478   -5451.9662    260.63478            0   -5345.3496   -367.25134    16.322114    102.98889            0    -10.73856   -9.4495782   -12.854201    34340.189   -40458.302    92000 
  -5694.9749    266.53489     -5428.44    266.53489            0    -5327.304   -367.67095    16.691606     105.3203            0   -13.087948   -13.780695   -15.622153    34330.743   -40454.595    94000 
  -5704.7605    286.85845    -5417.902    286.85845            0   -5338.3829    -366.3776    17.964358    113.35108            0   -15.372078    -14.17028   -19.032817    34355.784   -40453.606    96000 
  -5704.9981    304.40475   -5400.5933    304.40475            0   -5338.4681   -366.53002    19.063185    120.28443            0   -8.6949925   -4.7116375   -15.782659     34310.38   -40459.515    98000 
  -5672.1357    303.42685   -5368.7089    303.42685            0   -5306.8328   -365.30293    19.001945    119.89802            0   -7.4884724    1.0190004   -14.008683    34346.564   -40456.437   100000 
  -5676.2609    310.91414   -5365.3468    310.91414            0   -5308.5078   -367.75318    19.470833     122.8566            0   -17.446485   -18.794625   -25.556705    34382.265    -40456.69   102000 
  -5674.0745    315.86981   -5358.2047    315.86981            0   -5307.1252   -366.94936    19.781179    124.81481            0    -8.874129   -10.979667    -13.12423    34408.457   -40455.754   104000 
  -5651.6619     327.1321   -5324.5298     327.1321            0   -5285.4335   -366.22838    20.486474    129.26507            0   -10.273273   -16.096256   -9.0880057    34430.012   -40455.756   106000 
  -5646.2613    332.22897   -5314.0323    332.22897            0   -5280.4944   -365.76688    20.805663    131.27908            0   -18.475182   -21.968265   -14.291702    34404.577   -40454.272   108000 
   -5659.878    320.70722   -5339.1707    320.70722            0   -5293.4852    -366.3928    20.084119     126.7263            0   -11.995634   -18.658212   -7.6149478    34398.336   -40456.143   110000 
   -5644.632    349.35718   -5295.2748    349.35718            0   -5280.3358   -364.29616    21.878308    138.04723            0   -7.1116022   -6.4993874   -8.1237391    34393.631   -40456.894   112000 
  -5652.0179    355.68607   -5296.3318    355.68607            0   -5284.8317   -367.18612    22.274651    140.54806            0   -18.391013   -22.564798   -25.956295    34436.396   -40457.367   114000 
  -5639.6628    360.01416   -5279.6486    360.01416            0   -5272.7398   -366.92294    22.545696    142.25829            0   -13.780475   -15.547873   -9.9737907    34443.025   -40458.335   116000 
  -5627.1254     367.1852   -5259.9402     367.1852            0   -5259.3039   -367.82142    22.994778     145.0919            0    -13.08434   -13.819158    -10.14596    34436.885   -40458.889   118000 
  -5602.8929     373.1561   -5229.7368     373.1561            0   -5234.1483   -368.74465    23.368703    147.45128            0   -11.204171    -13.30001   -3.7641732    34503.439   -40460.903   120000 
  -5602.2068    380.04405   -5222.1627    380.04405            0    -5234.348   -367.85875    23.800057    150.17303            0   -13.194866   -15.741981   -12.181443    34510.288   -40462.635   122000 
  -5603.8244    387.25098   -5216.5735    387.25098            0   -5237.2701   -366.55433    24.251387    153.02082            0   -7.1284742    -3.434772   -5.5944855    34511.617   -40460.697   124000 
   -5587.691    396.12812   -5191.5628    396.12812            0   -5220.0957   -367.59522    24.807313    156.52859            0   -11.903663   -14.032223   -5.5892943    34513.512   -40457.675   126000 
  -5581.8577    410.45098   -5171.4067    410.45098            0   -5214.2667   -367.59093    25.704275    162.18822            0   -14.471583   -12.305832   -19.976239    34474.899   -40454.331   128000 
  -5555.4505    386.86266   -5168.5878    386.86266            0   -5186.8022   -368.64829    24.227068    152.86738            0    -15.57064   -12.323073   -13.234946    34570.276   -40456.706   130000 
  -5578.1842    414.08707   -5164.0971    414.08707            0   -5211.1208   -367.06344    25.931983    163.62501            0   -10.583931   -1.8872729   -16.978771    34488.608   -40456.668   132000 
  -5549.9839    406.82694    -5143.157    406.82694            0   -5185.6091   -364.37479    25.477321    160.75619            0   -16.820896   -17.295708   -18.958049    34521.366   -40455.756   134000 
  -5540.2196    421.15563   -5119.0639    421.15563            0   -5172.6979   -367.52168    26.374647    166.41812            0   -17.649307   -10.022025   -20.370176    34580.943   -40458.485   136000 
   -5548.242    433.98972   -5114.2523    433.98972            0   -5182.6815   -365.56047    27.178376    171.48947            0   -13.882746   -6.6036878   -21.885192    34566.323    -40461.55   138000 
  -5500.1553    441.33418   -5058.8211    441.33418            0   -5134.1719    -365.9834    27.638318     174.3916            0    -11.57059   -6.3655471   -13.238149    34584.807   -40456.655   140000 
  -5489.1796    457.04556   -5032.1341    457.04556            0   -5125.1087   -364.07091    28.622235     180.5999            0   -11.642193   -9.8657634   -5.8968566    34630.715   -40455.685   142000 
  -5519.1119    477.74638   -5041.3655    477.74638            0    -5153.638   -365.47388    29.918613    188.77975            0   -8.2353494   -1.2806964    -7.422766    34571.981   -40457.628   144000 
  -5525.0037    455.91847   -5069.0852    455.91847            0   -5159.0464   -365.95733    28.551652    180.15453            0   -20.435264   -24.997182   -8.5578834    34606.987   -40457.756   146000 
  -5532.7389     480.1721   -5052.5668     480.1721            0   -5169.3376   -363.40128    30.070523    189.73827            0    -14.53381   -21.915484    -8.922775    34559.581   -40454.266   148000 
  -5514.2192    481.02196   -5033.1973    481.02196            0   -5150.5274   -363.69188    30.123744    190.07408            0   -14.376357   -21.386078   -11.697043    34612.014   -40456.169   150000 
  -5501.4908    484.87415   -5016.6166    484.87415            0   -5134.3177   -367.17312    30.364986    191.59627            0   -10.830667   -9.9677393   -11.337699    34651.177    -40458.32   152000 
  -5495.1113    496.80251   -4998.3087    496.80251            0   -5130.5002    -364.6111    31.111993    196.30971            0   -16.706766   -11.155844   -20.228609    34709.749    -40460.25   154000 
  -5514.8084    500.10182   -5014.7065    500.10182            0   -5148.7696    -366.0388     31.31861    197.61342            0   -17.757649   -8.9179535   -28.010427    34593.974     -40458.3   156000 
  -5479.7147     512.4955   -4967.2192     512.4955            0   -5114.5674   -365.14732    32.094758    202.51074            0   -20.696337   -24.383826   -20.270002    34675.865   -40455.552   158000 
  -5461.9613    526.00326    -4935.958    526.00326            0   -5093.9546   -368.00669    32.940674    207.84828            0   -5.0837468   -4.0431885    4.5287641    34726.042   -40459.038   160000 
  -5466.4494    522.56085   -4943.8885    522.56085            0    -5099.508   -366.94132    32.725095    206.48803            0   -12.906626   -18.500172   -5.7422056    34616.487   -40459.528   162000 
  -5471.8345    524.99083   -4946.8437    524.99083            0    -5107.085   -364.74955    32.877271    207.44823            0   -12.911444   -8.3623873    -16.69065    34686.201   -40457.879   164000 
  -5432.4584    555.99044    -4876.468    555.99044            0   -5071.6623   -360.79614    34.818606    219.69761            0   -12.025362   -10.292363   -23.156629    34665.314   -40457.656   166000 
  -5432.9766    563.95795   -4869.0187    563.95795            0    -5070.819   -362.15762    35.317567    222.84594            0   -6.1389572   -13.052591    3.5491598    34720.116   -40458.906   168000 
  -5403.9846    567.06608   -4836.9185    567.06608            0   -5041.7608   -362.22374    35.512212    224.07411            0   -7.8480898   -5.0762454   -13.989554    34768.529   -40457.957   170000 
  -5415.1086    563.57312   -4851.5354    563.57312            0   -5053.6324   -361.47619    35.293467    222.69388            0   -25.942248   -23.651328   -25.097574    34734.418   -40456.433   172000 
  -5410.3002     567.0565   -4843.2437     567.0565            0   -5051.1129    -359.1873    35.511612    224.07032            0   -16.430097   -19.251735   -14.502088    34757.041   -40454.189   174000 
  -5422.8428    576.22793   -4846.6149    576.22793            0   -5061.2902   -361.55256    36.085968    227.69438            0   -22.069359   -23.631963   -8.8322597    34724.076   -40454.934   176000 
  -5387.8257     583.6495   -4804.1762     583.6495            0   -5026.1189   -361.70684     36.55074    230.62699            0   -11.390866   -13.520253    -9.859129    34811.571   -40456.727   178000 
  -5386.0885    599.87309   -4786.2154    599.87309            0    -5021.105    -364.9835    37.566734    237.03768            0   -10.375253    1.4895704    -15.99366    34769.202    -40459.59   180000 
  -5341.4275    615.66614   -4725.7614    615.66614            0   -4975.4158   -366.01171    38.555765    243.27825            0   -13.772008   -12.825262   -10.797317     34908.03   -40455.476   182000 
  -5385.1108    584.14065   -4800.9702    584.14065            0   -5016.8973   -368.21352    36.581498    230.82107            0   -15.198956   -21.988373    -10.26779    34799.183   -40457.126   184000 
   -5357.302    643.65888   -4713.6431    643.65888            0    -4991.363   -365.93899    40.308795    254.33948            0   -14.204129   -21.239844   -25.479329    34845.544   -40455.684   186000 
  -5330.1312    672.57937   -4657.5518    672.57937            0   -4962.1454   -367.98582    42.119925     265.7673            0   -14.359734   -4.0635199   -20.836266    34894.945   -40455.938   188000 
  -5325.5881    631.36145   -4694.2267    631.36145            0   -4960.9769   -364.61122    39.538675    249.48019            0   -19.685304   -12.895725   -20.431333    34875.818   -40457.932   190000 
  -5344.5361    645.74276   -4698.7934    645.74276            0   -4979.2554   -365.28074    40.439297    255.16292            0   -19.295944   -27.429812   -11.413483     34832.66   -40457.673   192000 
  -5345.1076    635.92212   -4709.1855    635.92212            0   -4982.9123    -362.1953    39.824284    251.28232            0   -21.605607   -20.158013   -29.350826    34846.169   -40459.592   194000 
  -5309.2687    640.79026   -4668.4785    640.79026            0   -4946.8345   -362.43426     40.12915    253.20595            0   -19.156351   -6.3432786   -40.791358    34868.211   -40452.833   196000 
  -5319.7223      647.127   -4672.5953      647.127            0   -4958.6283   -361.09399    40.525984    255.70989            0    2.1038259   -4.5815276    1.9582905     34867.12   -40461.115   198000 
  -5275.7322    670.90437   -4604.8278    670.90437            0   -4912.1571   -363.57516     42.01503    265.10543            0   -20.823354   -25.657116   -14.621481    34968.634   -40458.591   200000 
    -5274.77    670.71439   -4604.0557    670.71439            0   -4913.3989   -361.37119    42.003132    265.03036            0   -7.7519634   -7.6675498   -15.800656    34908.247   -40453.563   202000 
  -5237.2396    688.47787   -4548.7617    688.47787            0   -4875.8508   -361.38875    43.115561    272.04954            0   -17.507317   -18.139592   -16.604865    34960.467   -40456.219   204000 
   -5230.671    683.62491   -4547.0461    683.62491            0   -4865.7637    -364.9073    42.811646    270.13191            0  -0.77349572  -0.10209654    11.084512    35016.924   -40460.721   206000 
  -5237.1851    688.99638   -4548.1888    688.99638            0   -4875.2294   -361.95573    43.148032    272.25443            0   -5.4643403    6.3411535   -10.750605    35033.726   -40461.922   208000 
  -5238.3793    681.63868   -4556.7406    681.63868            0   -4876.9859   -361.39339     42.68726    269.34706            0   -16.956898   -15.391625   -17.287053    34999.505   -40454.949   210000 
  -5225.1684    708.01367   -4517.1547    708.01367            0   -4864.3271   -360.84128     44.33898    279.76904            0   -15.731003   -11.021027   -18.641846    35022.419   -40457.239   212000 
  -5238.9258    710.09828   -4528.8275    710.09828            0   -4876.9481   -361.97773    44.469527    280.59277            0   -17.590763   -7.9178155   -21.539854    35004.624   -40454.112   214000 
  -5227.7351    776.26763   -4451.4675    776.26763            0   -4867.6506   -360.08445    48.613347    306.73934            0   -19.060042   -14.023062    -25.48836    35004.252   -40454.813   216000 
  -5169.3628    763.45423   -4405.9086    763.45423            0   -4808.3727   -360.99019    47.810915    301.67617            0   -8.0621389    2.9158293   -27.930797    35055.829   -40455.607   218000 
  -5200.8981    754.26383   -4446.6342    754.26383            0   -4838.0865   -362.81154    47.235371    298.04462            0   -21.032976   -15.175788   -20.119009    35034.838    -40456.77   220000 
  -5163.7087    779.81439   -4383.8943    779.81439            0    -4806.659   -357.04965    48.835461    308.14083            0   -13.883896   -13.147673   -6.5287819    35033.838   -40458.505   222000 
  -5189.2063    759.07692   -4430.1294    759.07692            0   -4831.6181   -357.58817    47.536789     299.9465            0   -17.670123   -25.277202   -22.807238    35012.742   -40457.254   224000 
   -5166.669    772.93279   -4393.7362    772.93279            0   -4803.8745   -362.79446    48.404505    305.42159            0   -13.384868   -14.385525   -7.8061936    35073.262   -40458.345   226000 
   -5148.414    785.67148   -4362.7426    785.67148            0    -4784.924   -363.49002    49.202259    310.45524            0   -20.742577   -16.605617   -24.340695    35132.771   -40455.828   228000 
   -5146.416    782.04446   -4364.3716    782.04446            0   -4784.3609   -362.05517    48.975118    309.02204            0   -19.466572    -19.43193   -21.843665    35134.108   -40462.519   230000 
  -5097.2988    757.86722   -4339.4315    757.86722            0   -4736.2736   -361.02511    47.461032    299.46849            0     -24.5646   -15.183492   -38.669048    35195.272   -40457.408   232000 
  -5078.1701    796.10863   -4282.0614    796.10863            0   -4718.6947   -359.47533     49.85588    314.57944            0   -12.021754    -19.09673   -2.8357699    35159.934   -40455.044   234000 
  -5070.2892    829.20563   -4241.0836    829.20563            0   -4708.3781   -361.91111    51.928562     327.6576            0   -9.8947807     -11.4208    5.8168176    35186.945   -40453.108   236000 
  -5074.4767    841.66387   -4232.8129    841.66387            0   -4711.6746   -362.80218    52.708752    332.58043            0   -15.551685   -11.722389   -13.431466    35205.839   -40454.507   238000 
  -5053.9684    792.20957   -4261.7589    792.20957            0   -4692.0073   -361.96114    49.611703    313.03874            0   -5.5156808   -9.8696685   -10.793244    35229.844   -40457.211   240000 
  -5034.7635    816.20885   -4218.5547    816.20885            0   -4668.0754   -366.68813    51.114645    322.52197            0   -12.383741   -12.061123   -17.530007    35256.175   -40455.288   242000 
  -5069.4712    820.42438   -4249.0468    820.42438            0   -4707.9185   -361.55274    51.378641    324.18773            0   -21.865401   -31.195362   -16.235038    35194.244   -40450.954   244000 
  -5045.1103    877.75899   -4167.3513    877.75899            0   -4680.7091   -364.40112     54.96919    346.84329            0   -24.232119    -33.45353   -31.798248     35203.72     -40454.5   246000 
  -5025.6911    866.81066   -4158.8804    866.81066            0     -4661.56   -364.13106    54.283557    342.51709            0   -12.108272    -23.49796   -9.4676902    35331.396   -40456.953   248000 
  -5047.4169    853.46458   -4193.9523    853.46458            0   -4688.0452   -359.37171    53.447766    337.24344            0   -16.459282   -24.732409   -16.006021    35214.649   -40449.368   250000 
  -5005.7823    860.20332   -4145.5789    860.20332            0   -4649.4894   -356.29283    53.869776    339.90623            0   -24.252884   -30.108034   -24.276802    35269.673   -40462.195   252000 
  -5016.7325    861.51252     -4155.22    861.51252            0   -4656.5001   -360.23239    53.951764    340.42356            0   -26.188109   -22.771322   -13.971999    35328.655   -40453.805   254000 
  -4995.3147    879.98753   -4115.3272    879.98753            0   -4634.3082   -361.00652    55.108751    347.72389            0   -18.162822   -15.061279   -19.960751    35290.485   -40459.703   256000 
  -4987.5612    892.80493   -4094.7562    892.80493            0   -4629.3724   -358.18873    55.911434    352.78864            0   -16.992799   -18.162097   -16.298974     35341.89   -40452.498   258000 
  -4968.6928    840.64629   -4128.0465    840.64629            0    -4615.955   -352.73782    52.645027    332.17834            0   -16.261587    -8.900971   -18.150455     35392.77   -40451.483   260000 
  -4882.2501    883.50573   -3998.7444    883.50573            0   -4522.2786   -359.97148    55.329076    349.11409            0    2.2219588    3.5463178  -0.77741603    35410.128   -40451.493   262000 
  -4865.3868    910.95745   -3954.4293    910.95745            0   -4505.6045   -359.78231    57.048226    359.96154            0   -20.170716   -9.0915395    -50.91534    35508.065   -40450.852   264000 
  -4854.8334    963.63231   -3891.2011    963.63231            0   -4492.0116   -362.82175    60.346961    380.77582            0   -17.215858   -10.581525   -28.419363     35513.63   -40455.248   266000 
  -4929.3347    901.03229   -4028.3024    901.03229            0   -4567.8572   -361.47755    56.426668    356.03965            0   -4.2863517    8.0914905   -21.984048    35399.744   -40458.132   268000 
  -4824.6646    919.23484   -3905.4298    919.23484            0    -4465.941   -358.72362    57.566593    363.23232            0   -18.961354   -14.619282   -23.098643    35571.654   -40452.931   270000 
  -4790.8723    937.71826    -3853.154    937.71826            0   -4432.0375   -358.83475    58.724107    370.53598            0   -22.544446    -15.17833   -26.501692    35545.557   -40452.317   272000 
  -4853.8078     945.4436   -3908.3642     945.4436            0   -4493.3194   -360.48839    59.207903    373.58862            0    -24.41634   -31.481392   -25.485298    35514.224   -40452.651   274000 
  -4816.7553    924.98624   -3891.7691    924.98624            0   -4460.9481   -355.80721    57.926772    365.50497            0   -13.913155    2.8852302   -17.553111    35555.999   -40453.915   276000 
  -4825.0747    973.72994   -3851.3448    973.72994            0   -4471.1148   -353.95996     60.97932    384.76586            0   -18.630624   -3.4451843   -24.457242    35504.669   -40453.995   278000 
  -4797.4299    953.37723   -3844.0526    953.37723            0   -4443.5482    -353.8817    59.704742    376.72356            0   -8.6532405   -16.621713   -10.994084    35602.423   -40456.466   280000 
  -4774.5708     996.7677   -3777.8031     996.7677            0   -4415.6712    -358.8996    62.422047    393.86915            0    -9.928146   -4.4692304   -26.713363    35601.305   -40452.488   282000 
  -4773.7718    1032.2278    -3741.544    1032.2278            0   -4410.6743   -363.09753    64.642714    407.88106            0   -14.767704   -9.9356786   -15.090448    35584.853   -40450.864   284000 
  -4739.2995    1006.5572   -3732.7423    1006.5572            0   -4381.5064   -357.79306    63.035111    397.73744            0   -11.489932   -7.4690573   -12.237545    35612.014   -40450.726   286000 
  -4743.1117    1045.2058   -3697.9059    1045.2058            0   -4380.8562   -362.25546    65.455459     413.0093            0   -10.868244   -15.173701   -5.2142279    35637.947   -40451.676   288000 
  -4750.9971    1028.0513   -3722.9458    1028.0513            0   -4385.2472   -365.74982    64.381165    406.23074            0   -15.918613   -30.940832   -10.298801    35703.345   -40454.866   290000 
  -4705.9133    1020.3387   -3685.5745    1020.3387            0   -4342.1345    -363.7788    63.898171    403.18316            0   -23.438783    -23.30265   -23.055643     35717.45   -40451.809   292000 
   -4711.804    1010.8584   -3700.9456    1010.8584            0   -4349.9697   -361.83431    63.304469    399.43703            0    6.1901103    17.380025   -11.980782    35642.532    -40452.67   294000 
  -4649.9115    1043.6359   -3606.2756    1043.6359            0   -4290.2776   -359.63388    65.357144    412.38895            0   -14.507593   -20.887882   -5.9144926    35794.934   -40456.919   296000 
  -4621.5194     1019.105   -3602.4144     1019.105            0   -4266.9923    -354.5271    63.820911    402.69566            0   -14.108274   -15.899038   -21.083339     35740.89   -40449.684   298000 
  -4673.7928    1016.0241   -3657.7687    1016.0241            0   -4316.1152    -357.6776    63.627969    401.47825            0   -28.543112   -35.390574   -27.907422    35785.624   -40448.674   300000 
  -4627.4626    1027.5104   -3599.9522    1027.5104            0   -4269.1704   -358.29218     64.34729      406.017            0    -7.511863   -16.905069    3.1032206    35780.703   -40453.863   302000 
   -4637.918    1076.0993   -3561.8187    1076.0993            0   -4281.6992   -356.21884    67.390147    425.21674            0   -1.2170563  -0.37420047    0.7435916     35766.56   -40452.475   304000 
  -4588.0685    1056.9506   -3531.1179    1056.9506            0   -4228.0985   -359.96997    66.190968    417.65019            0   -20.852367   -10.029186   -40.984239    35869.838   -40448.476   306000 
  -4509.5709    1073.1585   -3436.4124    1073.1585            0   -4150.6371   -358.93372    67.205978    424.05468            0    -10.39469   -15.282282    -12.15351    35941.255   -40438.859   308000 
   -4554.387    1072.6653   -3481.7217    1072.6653            0   -4197.1859   -357.20112    67.175097    423.85983            0   -9.5127809   -15.304209   -10.998685    35924.303   -40448.186   310000 
   -4569.014    1079.6142   -3489.3998    1079.6142            0   -4210.8651   -358.14896    67.610264    426.60563            0   -17.996861   -12.980252   -38.533829    35890.214   -40444.936   312000 
  -4506.9067    1098.0253   -3408.8815    1098.0253            0   -4152.1438   -354.76292     68.76325    433.88072            0   -8.9468755    -16.14102   -6.6928401    35925.464   -40442.478   314000 
  -4507.3622    1091.0059   -3416.3563    1091.0059            0   -4150.2008   -357.16141    68.323667    431.10705            0   -7.7036323    9.7688691   -25.672201    35918.615   -40444.706   315165 
Loop time of 4738.39 on 16 procs for 288000 steps with 5783 atoms

Performance: 5.251 ns/day, 4.570 hours/ns, 60.780 timesteps/s
85.5% CPU use with 16 MPI tasks x 1 OpenMP threads

MPI task timing breakdown:
Section |  min time  |  avg time  |  max time  |%varavg| %total
---------------------------------------------------------------
Pair    | 248.42     | 452.95     | 739.97     | 481.4 |  9.56
Bond    | 0.11528    | 0.13341    | 0.17984    |   4.6 |  0.00
Kspace  | 3888.8     | 4158.1     | 4364.2     | 157.5 | 87.75
Neigh   | 4.3456     | 4.3705     | 4.391      |   0.6 |  0.09
Comm    | 25.686     | 39.079     | 69.733     | 215.0 |  0.82
Output  | 13.813     | 18.975     | 45.752     | 178.3 |  0.40
Modify  | 19.19      | 25.957     | 41.194     | 118.9 |  0.55
Other   |            | 38.8       |            |       |  0.82

Nlocal:    361.438 ave 526 max 292 min
Histogram: 2 0 8 5 0 0 0 0 0 1
Nghost:    571.375 ave 725 max 509 min
Histogram: 2 3 7 2 0 0 0 1 0 1
Neighs:    61684.9 ave 101033 max 33070 min
Histogram: 1 0 2 6 4 1 0 1 0 1

Total # of neighbors = 986958
Ave neighs/atom = 170.665
Ave special neighs/atom = 0.440948
Neighbor list builds = 2774
Dangerous builds = 0

unfix lang2

run 20000
PPPM initialization ...
  extracting TIP4P info from pair style
  using 12-bit tables for long-range coulomb (../kspace.cpp:323)
  G vector (1/distance) = 0.243877
  grid = 64 64 96
  stencil order = 5
  estimated absolute RMS force accuracy = 0.00381426
  estimated relative force accuracy = 1.14865e-05
  using double precision KISS FFT
  3d grid and FFT values/proc = 52371 24576
No /omp style for force computation currently active
Per MPI rank memory allocation (min/avg/max) = 15.57 | 15.62 | 16.34 Mbytes
PotEng KinEng TotEng c_ke_H2O c_ke_CNT c_pe_sumH2O c_pe_sumCNT Temp c_temwater c_temcnt Press Pxx Pzz E_coul E_long Step 
  -4507.3622    1091.0059   -3416.3563    1091.0059            0   -4150.2008   -357.16141    68.323667    431.10705            0   -9.4239686   -3.0139353   -14.242732    35918.615   -40444.706   315165 
  -4526.3354    1024.1277   -3502.2077    1024.1277            0   -4167.4128   -358.92256    64.135453    404.68035            0   -5.8112941   -3.9311359   -6.3684846     35859.32   -40437.981   316000 
  -4543.7135    1041.0486   -3502.6649    1041.0486            0   -4186.5299   -357.18366    65.195115    411.36659            0   -6.7313741   -5.9834034   -7.2977222    35883.556   -40450.785   318000 
  -4581.1891     1078.416   -3502.7731     1078.416            0    -4222.193   -358.99616    67.535229    426.13218            0   -3.6578861  -0.73384171   -5.7341058    35811.627   -40454.674   320000 
   -4573.749    1070.2522   -3503.4968    1070.2522            0   -4202.4216   -371.32739    67.023976    422.90629            0   -7.4935868   -5.6129172   -7.3765908    35937.167   -40441.185   322000 
   -4650.244    1148.1785   -3502.0655    1148.1785            0    -4272.964   -377.28001    71.904067    453.69857            0   -2.9782087    2.2838946   -7.8656641    35802.194   -40457.793   324000 
  -4566.3591    1063.2829   -3503.0761    1063.2829            0   -4191.8701   -374.48897    66.587529     420.1524            0    -6.160053   -3.9775777   -8.6910205    35946.342   -40455.581   326000 
  -4585.6169    1082.8922   -3502.7247    1082.8922            0   -4219.9863   -365.63063    67.815548    427.90093            0   -6.4896666    -6.969786   -7.3339841    35897.917   -40453.995   328000 
  -4532.3146    1031.0556   -3501.2591    1031.0556            0   -4170.5248    -361.7898    64.569306    407.41787            0   -6.7802541   -3.5315903    -11.81402    35947.349   -40443.351   330000 
  -4570.5998    1069.4879   -3501.1119    1069.4879            0   -4198.8932   -371.70664    66.976109    422.60426            0   -8.4500165   -6.0723673    -14.96047    35960.835   -40450.231   332000 
  -4569.0768    1068.9307   -3500.1462    1068.9307            0   -4198.1843   -370.89253    66.941214    422.38408            0   -4.2396213   -6.2586134   -4.6556949    35879.532   -40444.654   334000 
  -4593.7499    1091.9582   -3501.7917    1091.9582            0    -4225.066   -368.68395    68.383301    431.48333            0   -5.5791161   -6.1509471   -7.5959782    35873.372   -40447.238   335165 
Loop time of 340.41 on 16 procs for 20000 steps with 5783 atoms

Performance: 5.076 ns/day, 4.728 hours/ns, 58.753 timesteps/s
84.2% CPU use with 16 MPI tasks x 1 OpenMP threads

MPI task timing breakdown:
Section |  min time  |  avg time  |  max time  |%varavg| %total
---------------------------------------------------------------
Pair    | 13.992     | 32.028     | 60.892     | 199.3 |  9.41
Bond    | 0.0079746  | 0.0097052  | 0.012255   |   1.2 |  0.00
Kspace  | 270.56     | 298.54     | 316.06     |  64.3 | 87.70
Neigh   | 1.9713     | 1.9813     | 1.9905     |   0.4 |  0.58
Comm    | 1.8122     | 3.3625     | 6.3837     |  77.5 |  0.99
Output  | 0.96799    | 1.3145     | 3.1336     |  46.3 |  0.39
Modify  | 1.111      | 1.6749     | 2.828      |  33.4 |  0.49
Other   |            | 1.497      |            |       |  0.44

Nlocal:    361.438 ave 561 max 270 min
Histogram: 3 2 1 5 4 0 0 0 0 1
Nghost:    570.625 ave 722 max 467 min
Histogram: 2 1 5 0 1 4 1 0 1 1
Neighs:    62772.9 ave 125528 max 27032 min
Histogram: 3 2 1 2 5 1 1 0 0 1

Total # of neighbors = 1004367
Ave neighs/atom = 173.676
Ave special neighs/atom = 0.440948
Neighbor list builds = 1085
Dangerous builds = 0
unfix nve2

#--------------------
fix nvt1 5Water_atoms	nvt temp ${T} ${T} 20.0
fix nvt1 5Water_atoms	nvt temp 400 ${T} 20.0
fix nvt1 5Water_atoms	nvt temp 400 400 20.0

run_style	verlet
run 2000000
PPPM initialization ...
  extracting TIP4P info from pair style
  using 12-bit tables for long-range coulomb (../kspace.cpp:323)
  G vector (1/distance) = 0.243877
  grid = 64 64 96
  stencil order = 5
  estimated absolute RMS force accuracy = 0.00381426
  estimated relative force accuracy = 1.14865e-05
  using double precision KISS FFT
  3d grid and FFT values/proc = 52371 24576
No /omp style for force computation currently active
Per MPI rank memory allocation (min/avg/max) = 15.57 | 15.74 | 16.34 Mbytes
PotEng KinEng TotEng c_ke_H2O c_ke_CNT c_pe_sumH2O c_pe_sumCNT Temp c_temwater c_temcnt Press Pxx Pzz E_coul E_long Step 
  -4593.7499    1091.9582   -3501.7917    1091.9582            0    -4225.066   -368.68395    68.383301    431.48333            0   -5.5782127   -6.1502734   -7.5949355    35873.372   -40447.238   335165 
  -4691.0267    1031.4916   -3659.5351    1031.4916            0   -4313.6067   -377.41998    64.596615    407.59019            0   -5.5554259   -4.5412622   -7.4039536    35765.768   -40447.475   336000 
  -4693.1326    1028.6785   -3664.4541    1028.6785            0   -4316.3882   -376.74439    64.420445    406.47859            0   -5.2451109 0.0094856001   -7.4012304    35773.259   -40457.083   338000 
  -4678.0713    1011.2939   -3666.7774    1011.2939            0    -4309.274   -368.79731    63.331745    399.60914            0   -5.3198931   -6.9085174   -6.8488502    35745.501   -40453.996   340000 
  -4678.1047    1016.2355   -3661.8693    1016.2355            0   -4308.9696   -369.13516    63.641205    401.56176            0   -6.9681658   -4.5494609   -8.7709915    35775.302   -40459.298   342000 
  -4655.2539    1033.6705   -3621.5834    1033.6705            0   -4285.4005   -369.85341    64.733065    408.45116            0    -4.029568  -0.59067131   -9.3663162    35799.555   -40458.697   344000 
  -4761.6067    1009.1255   -3752.4812    1009.1255            0   -4392.4452   -369.16148    63.195946    398.75228            0   -3.3809749   -2.3747664   -5.2437209    35609.644   -40462.856   346000 
  -4718.3676    977.79625   -3740.5713    977.79625            0   -4343.3863    -374.9813     61.23397    386.37265            0    -3.962682   -1.6630048   -5.1609718     35714.24   -40456.288   348000 
  -4734.9744    1021.8001   -3713.1743    1021.8001            0   -4354.0959   -380.87858     63.98969    403.76062            0   -4.8677615    -3.550741   -7.8678768    35729.497   -40451.457   350000 
  -4757.2645    973.90713   -3783.3574    973.90713            0    -4381.372   -375.89247    60.990416    384.83588            0   -4.6861864   -1.6080642   -9.5760432    35681.377   -40461.213   352000 
  -4714.1842    1003.1156   -3711.0686    1003.1156            0    -4341.561   -372.62327    62.819582    396.37751            0   -3.3489898    -2.459644   -7.4008832    35688.055   -40460.336   354000 
  -4735.6992    1024.3623   -3711.3369    1024.3623            0   -4358.9799   -376.71939    64.150145    404.77306            0     -7.00477    -5.041871   -9.5646199    35754.113   -40460.467   356000 
   -4796.026    1017.6102   -3778.4159    1017.6102            0   -4424.1595   -371.86652    63.727295    402.10497            0   -6.8420478   -7.8812389   -6.7696242    35656.257   -40459.091   358000 
  -4754.6705    969.59188   -3785.0786    969.59188            0   -4382.3728   -372.29769    60.720176    383.13072            0   -6.5080051    -3.958948   -9.1872637    35713.194   -40465.152   360000 
   -4764.487    1003.5607   -3760.9263    1003.5607            0   -4389.7508   -374.73618    62.847456    396.55338            0   -4.1194402   -2.5539832   -6.5547213      35622.4   -40460.846   362000 
  -4678.1751    978.35673   -3699.8184    978.35673            0   -4311.8672   -366.30794     61.26907    386.59412            0     -7.95461   -6.5256935   -11.706644      35834.6    -40457.76   364000 
  -4799.9103    1051.8406   -3748.0697    1051.8406            0   -4428.4912   -371.41905    65.870956    415.63099            0   -4.1462955  -0.82308102   -5.2821574      35581.4   -40461.553   366000 
  -4765.4785    982.79333   -3782.6852    982.79333            0   -4384.8322    -380.6463     61.54691    388.34723            0   -5.1130069    -2.450618    -9.109883    35677.211   -40461.087   368000 
  -4856.5092    1034.7434   -3821.7657    1034.7434            0   -4483.1943   -373.31483    64.800257    408.87512            0   -5.8915447   -5.5573521   -5.6598927    35562.507   -40464.963   370000 
  -4740.7069    1002.0302   -3738.6767    1002.0302            0   -4370.0201    -370.6868    62.751609    395.94861            0   -6.3506389   -4.3595286   -8.2991212    35728.817   -40455.497   372000 
  -4672.8435    1011.2356   -3661.6079    1011.2356            0   -4297.4629    -375.3806    63.328094     399.5861            0   -4.9646365   -4.6399816   -9.2071615    35794.226   -40461.641   374000 
  -4786.0837    988.97985   -3797.1038    988.97985            0   -4415.1196   -370.96412    61.934337    390.79181            0    -3.497293   -1.0044455   -7.2919816    35574.557   -40454.788   376000 
  -4799.9418    1078.1107   -3721.8311    1078.1107            0   -4422.9022   -377.03956    67.516109    426.01154            0   -4.9098218   -4.3552225    -5.047688    35608.087   -40452.847   378000 
  -4727.7402    967.46601   -3760.2741    967.46601            0   -4355.6897   -372.05047    60.587045    382.29069            0   -4.9816081    -2.696095   -9.3226731    35721.969   -40466.299   380000 
  -4740.2931    1041.0805   -3699.2126    1041.0805            0   -4367.3798   -372.91332     65.19711    411.37918            0   -4.2667102   -2.8787769   -7.0280148    35674.046    -40450.86   382000 
  -4731.1621    988.69844   -3742.4636    988.69844            0   -4358.4615   -372.70058    61.916714    390.68061            0   -7.1485406   -5.0713206   -7.6222535    35762.984    -40457.37   384000 
  -4823.9015    1012.4943   -3811.4071    1012.4943            0   -4441.5349   -382.36656     63.40692    400.08348            0   -7.4476922   -10.339786   -5.8354159    35646.619   -40463.031   386000 
  -4678.5585    1012.8696   -3665.6889    1012.8696            0   -4306.5503   -372.00828    63.430421    400.23176            0   -5.0440034   -4.0246244   -8.1705705    35776.631   -40457.821   388000 
  -4688.0773    987.43507   -3700.6423    987.43507            0   -4312.9541   -375.12325    61.837596    390.18139            0     -4.74449   -3.2127341   -7.8893023    35752.521   -40462.836   390000 
  -4750.5033    981.56283   -3768.9404    981.56283            0   -4380.8249   -369.67836    61.469851      387.861            0   -3.8794461  -0.69846407   -8.9588094    35655.019   -40457.608   392000 
  -4727.6379    955.09126   -3772.5466    955.09126            0   -4356.9712   -370.66671    59.812082    377.40085            0   -6.0630963   -5.4724165   -7.3797027    35737.809   -40457.983   394000 
  -4695.9438    989.51293   -3706.4308    989.51293            0    -4319.106   -376.83776    61.967721    391.00245            0   -6.6166517   -6.2290739   -8.4594397    35758.515   -40451.924   396000 
  -4689.9077    996.34621   -3693.5615    996.34621            0   -4313.7297   -376.17796    62.395652     393.7026            0   -6.6716867   -5.4104931     -6.65839    35786.415   -40458.125   398000 
  -4719.9316    983.67315   -3736.2585    983.67315            0   -4342.9977   -376.93393    61.602008    388.69488            0   -6.6582662   -3.7878027   -10.172224    35770.328   -40462.627   400000 
  -4764.3702    999.01779   -3765.3524    999.01779            0   -4387.8325   -376.53765    62.562958    394.75826            0   -2.5501815    0.6239936   -5.6267205    35638.959    -40452.16   402000 
  -4793.8605    981.76497   -3812.0955    981.76497            0   -4409.7733   -384.08718    61.482509    387.94088            0   -5.4762759   -3.7919702   -7.8503612    35653.575   -40465.217   404000 
  -4743.7476    1037.7047   -3706.0429    1037.7047            0   -4368.9102   -374.83739    64.985706    410.04526            0    -6.283136    -2.407543   -13.163408    35741.134   -40465.633   406000 
  -4799.3771    958.32844   -3841.0487    958.32844            0   -4422.6096   -376.76752    60.014809    378.68001            0   -6.0233403   -5.1683778   -10.306067    35635.943   -40458.425   408000 
  -4746.6058     1064.697   -3681.9088     1064.697            0    -4371.747   -374.85879    66.676083    420.71116            0   -5.0600865   -4.2850084   -7.9649582    35704.307   -40459.731   410000 
  -4681.2612    987.02001   -3694.2412    987.02001            0   -4307.2156   -374.04558    61.811603    390.01738            0   -6.7119751   -5.7900395   -7.0939589    35838.851   -40464.634   412000 
  -4709.7337    1010.8438     -3698.89    1010.8438            0   -4341.8983    -367.8354    63.303553    399.43125            0   -8.9438779   -9.4426655   -7.9116552    35800.123   -40457.578   414000 
  -4680.6171    1018.0375   -3662.5795    1018.0375            0   -4307.4634   -373.15372    63.754059    402.27385            0   -2.6353391   -2.5288706   -1.8116819    35712.664   -40458.542   416000 
  -4711.0075    969.51764   -3741.4898    969.51764            0    -4334.455   -376.55246    60.715527    383.10139            0   -6.9049235   -5.8995907   -8.1661347    35784.556   -40466.924   418000 
  -4634.8356    1051.1873   -3583.6484    1051.1873            0   -4263.6275   -371.20817    65.830044    415.37285            0   -2.7809703   -0.9704102   -7.0624196    35772.563   -40453.058   420000 
  -4762.9145    984.07205   -3778.8425    984.07205            0   -4385.1642   -377.75038    61.626989    388.85251            0   -5.1091634   -3.0022038   -5.3012447    35672.398   -40458.308   422000 
  -4727.3429    995.51421   -3731.8287    995.51421            0   -4351.2437   -376.09914    62.343548    393.37384            0   -5.8447127  0.089459463   -14.811262    35731.801    -40461.46   424000 
  -4774.3219    1055.2963   -3719.0256    1055.2963            0   -4405.0909   -369.23108     66.08737    416.99651            0   -5.9102579   -2.5352692   -10.723194    35671.591    -40452.87   426000 
  -4719.3685    1042.9392   -3676.4293    1042.9392            0   -4344.5013    -374.8672    65.313511    412.11364            0   -7.2877503   -4.7426762   -7.8795235    35778.772   -40465.231   428000 
  -4808.0201    1011.7838   -3796.2363    1011.7838            0   -4431.3335    -376.6866    63.362422     399.8027            0   -5.7952423   -4.8026036   -12.223311    35643.115   -40464.201   430000 
  -4808.6158    1034.6669   -3773.9489    1034.6669            0   -4434.9399   -373.67588    64.795466    408.84489            0   -2.4509889  -0.35570872   -5.3491474    35577.382   -40455.405   432000 
  -4777.9625    1026.6429   -3751.3197    1026.6429            0   -4400.4773   -377.48523    64.292964    405.67421            0    -4.065487   -2.2341227   -9.7184046    35675.153    -40462.55   434000 
  -4812.9321    996.02742   -3816.9047    996.02742            0   -4436.6682   -376.26396    62.375687    393.57663            0    -1.653671    1.5475189   -8.0454106    35550.538   -40458.767   436000 
   -4697.672    1011.1497   -3686.5223    1011.1497            0   -4323.8089   -373.86307    63.322712    399.55214            0   -5.6081066   -4.7960639   -8.8879078    35788.973   -40464.038   438000 
  -4733.9187    1010.2716   -3723.6472    1010.2716            0   -4359.9867   -373.93206     63.26772    399.20516            0   -5.3821623   -2.2344563   -6.3470451    35725.749   -40461.371   440000 
  -4764.7136    1027.4269   -3737.2867    1027.4269            0   -4390.3845   -374.32912    64.342063    405.98402            0   -6.1511304     -3.57631   -7.9367802     35664.71   -40457.805   442000 
  -4701.9469    1022.6655   -3679.2815    1022.6655            0   -4324.2901   -377.65686    64.043882    404.10256            0   -6.5501386     -4.55881   -9.0246359    35782.788   -40460.835   444000 
  -4681.7175    962.31034   -3719.4071    962.31034            0   -4310.7523   -370.96517    60.264173    380.25345            0   -5.8583151   -7.2324526   -7.6262327    35779.313   -40461.859   446000 
  -4714.0871    1014.2727   -3699.8144    1014.2727            0   -4338.5025   -375.58456    63.518289    400.78619            0   -5.3549633   -6.7694595   -5.3584749    35736.837   -40454.147   448000 
   -4769.611    1043.2933   -3726.3177    1043.2933            0   -4392.6362   -376.97484    65.335687    412.25357            0   -2.8307513   -6.2372353  -0.95457176    35611.049   -40457.771   450000 
  -4716.7123    1014.7126   -3701.9997    1014.7126            0   -4337.1306   -379.58162    63.545835       400.96            0   -2.4774265   -3.5748178  -0.20038589    35686.886   -40453.105   452000 
  -4709.1399    1042.8293   -3666.3106    1042.8293            0   -4339.1025   -370.03743    65.306632    412.07023            0   -5.0414188   -3.5405724   -9.0818534    35759.935   -40458.581   454000 
  -4744.4254    1041.1263   -3703.2992    1041.1263            0   -4361.8054   -382.62004    65.199978    411.39727            0   -3.9966943   -3.4844226   -6.7029329     35699.07   -40460.414   456000 
  -4785.8966    1009.2376   -3776.6589    1009.2376            0   -4410.2036   -375.69302    63.202971     398.7966            0   -4.9895117   -2.8511215    -10.36135    35637.404   -40459.645   458000 
  -4740.8894    1013.5476   -3727.3418    1013.5476            0   -4369.0287   -371.86067     63.47288    400.49967            0   -6.6084193   -3.6394695   -9.7141607    35727.586   -40462.125   460000 
  -4706.2802    1007.9503   -3698.3299    1007.9503            0   -4330.3245   -375.95568    63.122349     398.2879            0   -2.5098517   -3.1735787   -4.9945426    35690.182   -40462.193   462000 
  -4766.1539    982.95357   -3783.2004    982.95357            0   -4394.3193   -371.83465    61.556945    388.41055            0   -6.4836295   -5.4247116   -8.1179979    35649.311   -40455.316   464000 
  -4689.9324    1055.2826   -3634.6498    1055.2826            0   -4320.5263   -369.40611     66.08651    416.99109            0   -5.0647779   -7.3767386   -5.2722208    35747.747   -40445.928   466000 
  -4696.9498    1015.0648    -3681.885    1015.0648            0   -4334.8199   -362.12986    63.567894    401.09919            0   -6.0042601   -5.2042713   -8.4587118    35746.859   -40451.093   468000 
   -4697.148    1038.2002   -3658.9477    1038.2002            0   -4320.3555   -376.79248    65.016736    410.24105            0   -7.3102988   -6.7712839   -11.153632    35823.168   -40465.736   470000 
    -4789.16    1096.3607   -3692.7992    1096.3607            0   -4421.3507   -367.80928    68.659008    433.22298            0   -6.5977368    -6.324322   -9.3320157     35679.58   -40455.659   472000 
  -4745.6363    1017.9859   -3727.6504    1017.9859            0   -4371.6101   -374.02624    63.750829    402.25346            0   -5.7243091   -1.1637152   -13.028191    35731.448   -40456.738   474000 
  -4720.3854     995.5381   -3724.8473     995.5381            0   -4349.6745   -370.71091    62.345044    393.38327            0   -5.8809185   -4.7480648   -9.5392578    35767.402   -40456.664   476000 
  -4710.6653    1017.8617   -3692.8037    1017.8617            0   -4331.3242    -379.3411    63.743046    402.20436            0   -9.1786093   -10.520313   -10.550556      35824.9   -40461.319   478000 
  -4747.6206    1008.9916    -3738.629    1008.9916            0   -4370.9308    -376.6898    63.187565    398.69939            0    -2.557947   0.52759896   -4.3240591    35637.107   -40453.427   480000 
  -4771.3176    976.01565   -3795.3019    976.01565            0   -4399.7735   -371.54408    61.122461    385.66905            0   -2.6292675   -1.2124223   -2.9803705     35599.32   -40458.896   482000 
  -4722.7908    1011.9462   -3710.8446    1011.9462            0   -4346.4922   -376.29866    63.372596     399.8669            0   -2.4749974   -1.7357584    -1.422709    35656.888    -40456.84   484000 
  -4712.4892    997.68739   -3714.8018    997.68739            0   -4334.2158    -378.2734    62.479642    394.23256            0   -3.9873939   -3.4894419    -6.173332    35714.495   -40458.126   486000 
  -4711.5011    993.52171   -3717.9794    993.52171            0   -4341.6949   -369.80617    62.218769    392.58651            0   -5.7893184   -3.9359752   -8.0616854    35722.877   -40455.371   488000 
  -4654.5909    996.17382   -3658.4171    996.17382            0   -4284.2651   -370.32583    62.384856    393.63448            0   -5.1587467   -6.7354799   -7.3429068    35768.981   -40447.487   490000 
    -4759.15    989.72238   -3769.4276    989.72238            0   -4384.2373   -374.91274    61.980838    391.08522            0   -6.9720529   -7.1112844   -6.9871846    35698.158   -40459.118   492000 
  -4670.0602    990.20006   -3679.8602    990.20006            0   -4300.5585   -369.50175    62.010752    391.27397            0   -5.5123912   -2.5850217   -8.8320073    35796.307   -40458.751   494000 
  -4763.2408    987.87216   -3775.3686    987.87216            0   -4383.1366   -380.10418    61.864969    390.35411            0   -3.3152735  -0.32119283   -6.7331064     35644.12   -40459.034   496000 
  -4701.8509    1006.4248   -3695.4261    1006.4248            0   -4321.7466   -380.10423    63.026815     397.6851            0   -4.9102432   -4.6250013   -6.6111868    35749.944    -40456.68   498000 
  -4712.5316     1033.867   -3678.6646     1033.867            0   -4331.5015   -381.03013    64.745369    408.52879            0   -7.2437207   -6.5165319    -8.874707    35802.538    -40459.82   500000 
   -4782.452    1017.1626   -3765.2894    1017.1626            0   -4409.0856   -373.36638    63.699266    401.92811            0   -4.7139309   -5.0637846   -5.7803791    35650.542   -40459.725   502000 
   -4795.706    1002.8889   -3792.8172    1002.8889            0   -4417.5345   -378.17152    62.805383    396.28791            0   -5.0558802   -4.0419687   -8.0772479      35647.4   -40460.667   504000 
  -4776.2551    997.63293   -3778.6222    997.63293            0   -4409.6864   -366.56873    62.476232    394.21104            0   -2.8022222    -1.358553   -7.6486686     35630.17   -40461.311   506000 
  -4751.6079    1005.2764   -3746.3315    1005.2764            0    -4371.832   -379.77587    62.954899    397.23132            0   -6.0382278   -2.7574497   -7.9758561    35707.495   -40458.948   508000 
  -4667.4093    1070.8653    -3596.544    1070.8653            0   -4287.4874   -379.92195    67.062372    423.14856            0    -1.757487   0.64160508   -0.6439296    35712.604   -40453.646   510000 
  -4736.8169    1011.8339    -3724.983    1011.8339            0   -4364.7746   -372.04229    63.365562    399.82251            0   -5.7112481   -5.7198602   -6.9964901    35663.136   -40452.516   512000 
  -4707.7707    1015.5177    -3692.253    1015.5177            0   -4333.1692   -374.60155    63.596257    401.27815            0   -5.7540124   -5.0418269   -8.9170422      35761.1   -40455.416   514000 
  -4668.1914    1028.8554    -3639.336    1028.8554            0   -4299.9794   -368.21199     64.43152    406.54847            0   -4.0629954   -1.0076959   -8.1670615    35765.464   -40460.751   516000 
  -4728.3967    1008.2529   -3720.1438    1008.2529            0   -4354.0148   -374.38185    63.141299    398.40747            0   -7.4771598   -4.5377966    -12.47722    35733.898   -40457.602   518000 
   -4705.601    1020.0254   -3685.5755    1020.0254            0   -4333.9767   -371.62429    63.878551    403.05936            0   -6.8926155   -6.1457974   -6.3819145    35758.072    -40459.02   520000 
  -4739.0005    984.40961   -3754.5909    984.40961            0   -4362.6461   -376.35443    61.648129    388.98589            0   -7.4306894   -7.7810214   -6.9979736    35730.951    -40454.32   522000 
  -4768.4245    1046.9321   -3721.4924    1046.9321            0   -4398.8407   -369.58382    65.563567    413.69144            0   -3.1214083   0.81054072   -8.0019933    35624.211   -40460.379   524000 
  -4744.9324     1004.357   -3740.5754     1004.357            0   -4369.5482   -375.38425    62.897325    396.86805            0   -8.3326497   -3.6505413   -12.456917    35766.758    -40465.95   526000 
  -4630.4403    1040.7261   -3589.7142    1040.7261            0   -4261.4489   -368.99137    65.174916    411.23914            0   -6.4834419   -3.3098017   -8.1217152    35876.998   -40459.227   528000 
  -4686.5889    1022.3466   -3664.2423    1022.3466            0   -4312.1982   -374.39073    64.023913    403.97656            0   -3.7478786   -1.8220397   -7.5860909    35718.716   -40458.042   530000 
  -4722.5811    1018.4118   -3704.1693    1018.4118            0   -4348.3912    -374.1899    63.777496    402.42173            0   -5.3729076   -4.5532664   -7.2697232    35740.824   -40454.429   532000 
   -4765.339     1030.578   -3734.7609     1030.578            0   -4391.4268   -373.91219    64.539402    407.22918            0   -9.8077709   -8.5506629   -14.056906    35757.107   -40457.394   534000 
  -4687.7702    1031.9563    -3655.814    1031.9563            0   -4313.5895   -374.18079    64.625712    407.77378            0   -8.9467194   -6.2900797    -12.92775    35831.844   -40451.806   536000 
  -4710.1362    1043.8519   -3666.2843    1043.8519            0   -4334.6247   -375.51158     65.37067     412.4743            0   -5.0278076   -3.8054904   -6.1589329    35733.597   -40460.968   538000 
  -4737.7217    1062.1967   -3675.5251    1062.1967            0   -4361.7256   -375.99612    66.519501    419.72317            0   -4.0173903   -1.2285313   -7.3724768    35697.519   -40451.228   540000 
  -4785.6746    1021.0173   -3764.6573    1021.0173            0   -4413.7182   -371.95642    63.940666    403.45129            0   -5.5336785   -4.4242987   -9.1435752    35665.953   -40467.153   542000 
  -4690.1511    985.26476   -3704.8864    985.26476            0   -4313.2776   -376.87348    61.701682    389.32381            0   -5.9554295   -4.7322619   -5.4531145    35766.742   -40462.067   544000 
  -4749.9494    1007.9055   -3742.0438    1007.9055            0   -4384.5245   -365.42484    63.119547    398.27022            0   -1.8283503   0.59576538   -5.7959301    35589.776   -40460.098   546000 
  -4722.5403    1055.4229   -3667.1174    1055.4229            0   -4348.2825   -374.25777      66.0953    417.04655            0   -6.4063843   -3.3432954   -8.8663463     35751.19   -40461.338   548000 
  -4688.8048    1020.3615   -3668.4433    1020.3615            0   -4316.6124   -372.19235    63.899597    403.19216            0   -5.4828787   -3.0712919   -8.0124215    35772.377   -40462.765   550000 
  -4689.3007    997.20651   -3692.0942    997.20651            0   -4320.6974   -368.60327    62.449527    394.04254            0   -5.0003921   -4.8559732   -6.1015452    35750.374    -40452.24   552000 
  -4762.2905    984.77567   -3777.5148    984.77567            0   -4381.4572   -380.83335    61.671053    389.13054            0   -4.5120197   -2.5653562   -5.1572424    35642.511   -40463.392   554000 
  -4696.3874    1024.3591   -3672.0284    1024.3591            0   -4318.4806   -377.90682    64.149941    404.77177            0   -6.8832112   -4.9050132   -8.7080577    35777.814   -40457.226   556000 
  -4754.1571    1013.4038   -3740.7533    1013.4038            0   -4378.7497    -375.4074    63.463874    400.44284            0   -6.2371551   -6.2237966   -7.7193995    35683.525   -40455.307   558000 
  -4786.1696    1013.4413   -3772.7283    1013.4413            0   -4410.5246   -375.64507    63.466223    400.45766            0   -7.2125273   -5.4145512   -11.518191    35691.073   -40464.377   560000 
  -4704.2791    979.06219   -3725.2169    979.06219            0    -4331.869   -372.41007    61.313249    386.87288            0   -5.7423473   -1.4091442   -11.714759     35754.26   -40459.849   562000 
  -4685.1212    1026.2419   -3658.8793    1026.2419            0   -4314.9953   -370.12589    64.267856    405.51579            0   -2.7789761   -0.4939689   -5.0308067    35729.817   -40453.804   564000 
  -4738.9736    1027.3782   -3711.5954    1027.3782            0   -4362.1866   -376.78703    64.339014    405.96478            0   -5.0512155    -3.239989   -10.692759    35730.196   -40457.258   566000 
  -4736.0618    998.01549   -3738.0463    998.01549            0   -4360.4017   -375.66009     62.50019    394.36221            0   -7.6063893   -4.7376428   -10.263178    35757.352   -40456.589   568000 
   -4751.855    1023.9733   -3727.8817    1023.9733            0   -4371.7194   -380.13561    64.125785    404.61935            0   -6.7125931   -4.9317424   -9.7159901    35715.979   -40459.776   570000 
    -4768.83    1024.1903   -3744.6398    1024.1903            0   -4397.3171   -371.51287     64.13937    404.70507            0   -6.4929465   -4.8867565   -9.3001962    35697.152   -40461.734   572000 
  -4843.3983    1002.4633    -3840.935    1002.4633            0   -4466.0468   -377.35144    62.778729    396.11973            0   -6.8461358   -5.3729302   -11.893771    35630.796   -40461.273   574000 
  -4843.0181    989.95931   -3853.0588    989.95931            0   -4465.2397    -377.7784    61.995675    391.17884            0   -3.9094608   -2.0948725   -7.4541913    35596.258   -40463.224   576000 
  -4742.2511    988.20189   -3754.0492    988.20189            0   -4360.4108   -381.84033    61.885618     390.4844            0   -6.4110413   -3.3817057   -8.2847419    35751.529   -40460.184   578000 
  -4739.5862    1008.2781   -3731.3082    1008.2781            0   -4366.8887   -372.69756    63.142879    398.41743            0   -7.1873782   -5.4585805   -8.7247963    35756.483   -40463.974   580000 
  -4837.4047    1008.2949   -3829.1098    1008.2949            0   -4460.8434   -376.56133    63.143935     398.4241            0   -7.3947646   -6.3151378   -11.482177    35655.875   -40458.698   582000 
  -4834.9522    1004.7152    -3830.237    1004.7152            0   -4459.9563    -374.9959    62.919756    397.00958            0   -5.5049977   -2.3429823   -9.2643358    35603.202   -40460.516   584000 
  -4713.9088    1028.5086   -3685.4002    1028.5086            0   -4341.4482   -372.46051    64.409804    406.41145            0   -5.3171957   -4.2786119   -7.9207066    35746.023   -40447.124   586000 
  -4698.0861     1003.342    -3694.744     1003.342            0   -4319.9326   -378.15349    62.833762    396.46698            0   -4.8065041   -4.0831227   -8.4752596    35772.107   -40461.367   588000 
  -4753.6911    992.41576   -3761.2753    992.41576            0   -4381.7221   -371.96898    62.149509    392.14949            0   -5.2069463   -3.4875697   -10.724784    35698.644   -40458.778   590000 
  -4779.0477     986.2749   -3792.7728     986.2749            0   -4408.6197   -370.42802    61.764941    389.72296            0   -3.7428226   -3.0362367    -7.050581    35629.986   -40463.435   592000 
  -4754.0643    1013.9001   -3740.1642    1013.9001            0   -4373.4586   -380.60568    63.494955    400.63895            0   -7.5627335   -9.3155468   -11.675379    35766.019   -40461.714   594000 
  -4744.5988    1042.2424   -3702.3564    1042.2424            0   -4364.4657   -380.13305    65.269875    411.83831            0   -5.7442964   -4.2057709   -7.9253548    35715.449   -40455.103   596000 
  -4726.4801    1058.2375   -3668.2425    1058.2375            0   -4349.0333   -377.44675    66.271562    418.15873            0   -2.4715479   -0.4453762   -7.0507186    35679.236   -40460.005   598000 
  -4705.9707    982.36264   -3723.6081    982.36264            0   -4332.6137   -373.35702    61.519938    388.17704            0   -5.6121144  -0.61283075    -10.93182    35784.541   -40468.218   600000 
  -4800.8569    999.86833   -3800.9886    999.86833            0    -4414.891   -385.96592    62.616223    395.09435            0   -6.5930232   -5.6806946   -7.2526035    35659.721   -40459.585   602000 
  -4763.8223    1055.6904   -3708.1319    1055.6904            0   -4389.2853   -374.53697    66.112051    417.15225            0   -4.1672511   -6.8395199   -6.6631953    35651.297   -40459.064   604000 
  -4749.2135    982.73077   -3766.4828    982.73077            0    -4373.823   -375.39054    61.542992    388.32251            0   -3.8604702   -4.8758624   -5.9393401    35691.213   -40460.004   606000 
  -4794.8562    983.24626   -3811.6099    983.24626            0   -4414.4829   -380.37328    61.575274     388.5262            0   -5.7088056   -5.0336765   -7.3690544     35655.46   -40460.139   608000 
  -4788.1735    1002.8671   -3785.3064    1002.8671            0   -4418.6401   -369.53341    62.804018     396.2793            0   -1.5120681   0.18527734   -2.9254591    35574.001   -40460.513   610000 
   -4816.269    1024.3309   -3791.9381    1024.3309            0    -4436.101   -380.16797    64.148176    404.76064            0   -5.4869321   -6.3886059   -8.7935068    35651.138   -40461.662   612000 
  -4749.3807    999.05727   -3750.3234    999.05727            0    -4370.226   -379.15467     62.56543    394.77386            0   -5.3273028   -5.2172365   -7.3192144    35702.277   -40457.693   614000 
  -4825.4841    1020.9802   -3804.5038    1020.9802            0   -4447.6798   -377.80425    63.938343    403.43663            0   -8.2528135   -6.7925715   -11.766794    35683.167   -40471.417   616000 
[...]
  -4716.5608    1007.2468    -3709.314    1007.2468            0   -4345.3013   -371.25949    63.078294    398.00992            0   -6.0197254    -8.242091   -9.8148674    35769.909    -40453.31  2184000 
  -4731.6057    1024.4383   -3707.1674    1024.4383            0   -4352.4084   -379.19733    64.154903    404.80308            0   -6.5777396   -1.7819638   -12.500363    35782.316   -40455.412  2186000 
  -4784.4711    1038.1604   -3746.3107    1038.1604            0   -4407.6538   -376.81723    65.014242    410.22532            0   -6.8065448   -6.2422816   -11.838718    35694.378   -40451.961  2188000 
  -4864.6751    1035.6152   -3829.0599    1035.6152            0    -4484.331   -380.34404    64.854848    409.21958            0    -3.986821   -4.0575066   -6.7134862    35517.026   -40461.841  2190000 
  -4742.7961    973.75751   -3769.0386    973.75751            0   -4361.4293   -381.36672    60.981046    384.77675            0   -8.0180788   -4.9316981   -11.838691    35774.284   -40459.583  2192000 
  -4732.3699    999.94722   -3732.4226    999.94722            0   -4354.4508     -377.919    62.621163    395.12552            0   -8.5127275   -6.8661778   -10.631425    35786.856   -40462.759  2194000 
  -4739.2861    1047.9897   -3691.2964    1047.9897            0   -4367.2107   -372.07542    65.629799    414.10935            0   -7.6981868   -7.4359185   -9.3485762    35769.125   -40461.154  2196000 
  -4706.6513     974.6196   -3732.0317     974.6196            0   -4332.8549   -373.79638    61.035035    385.11741            0   -9.0477009   -5.9938515   -11.526004    35811.312   -40454.211  2198000 
  -4739.8062    998.86312   -3740.9431    998.86312            0   -4368.2296   -371.57667    62.553272    394.69715            0   -9.1686772   -8.5936883   -13.882253    35813.013   -40460.274  2200000 
  -4808.0761     1002.094   -3805.9821     1002.094            0    -4436.075   -372.00113    62.755606    395.97383            0   -7.5028733   -7.5221052   -8.4476221    35662.736   -40457.461  2202000 
  -4796.3589    990.40587    -3805.953    990.40587            0   -4416.2116   -380.14734    62.023641    391.35529            0   -3.4629996  -0.21639769   -8.0922345    35587.919   -40459.604  2204000 
  -4756.3639    1000.8077   -3755.5562    1000.8077            0   -4382.8748   -373.48911    62.675052    395.46555            0   -6.5973929   -4.7521859   -8.1065609    35712.251   -40462.396  2206000 
  -4702.4391    1015.2396   -3687.1995    1015.2396            0   -4327.6952   -374.74392     63.57884    401.16825            0   -4.1941806   -4.5051392   -5.2572101    35755.058   -40464.171  2208000 
  -4832.1554    1057.8295   -3774.3259    1057.8295            0   -4462.1975   -369.95791    66.246011     417.9975            0   -3.3483763   -2.2738164   -6.3558147    35570.524   -40465.772  2210000 
  -4803.4063    983.94557   -3819.4608    983.94557            0   -4425.0503     -378.356    61.619068    388.80253            0    -2.183021  -0.78289314   -1.5960163    35571.053   -40461.713  2212000 
  -4800.3057    1008.0962   -3792.2095    1008.0962            0   -4425.0075    -375.2982    63.131489    398.34557            0   -6.3901496   -4.5519793   -10.806099     35648.62    -40464.08  2214000 
  -4782.3065    1022.4094   -3759.8971    1022.4094            0   -4402.0173   -380.28919    64.027844    404.00136            0   -6.9250145   -5.6976548   -7.8693319    35705.904   -40458.973  2216000 
  -4777.1874    990.08366   -3787.1038    990.08366            0   -4400.6623   -376.52509    62.003463    391.22797            0   -4.8992996   -4.6328857   -7.4447529    35653.303   -40458.337  2218000 
  -4760.9803    1081.1543   -3679.8259    1081.1543            0   -4382.7691   -378.21118    67.706715    427.21422            0   -4.2440273   -2.8569731     -6.10145    35686.138   -40465.363  2220000 
  -4763.9264    996.85378   -3767.0726    996.85378            0   -4388.0525   -375.87384    62.427438    393.90316            0   -6.5149223   -4.1297987   -7.9918201    35718.545   -40463.153  2222000 
  -4823.9825    1048.7875    -3775.195    1048.7875            0   -4450.7361   -373.24637    65.679761    414.42459            0   -5.1564974   -3.8616856    -7.436248    35596.256   -40460.921  2224000 
  -4746.3468    1068.1844   -3678.1624    1068.1844            0   -4366.0217   -380.32504    66.894479    422.08919            0   -5.2385751   -0.2309602   -10.027305    35719.658   -40452.696  2226000 
  -4799.7986    1021.6535   -3778.1451    1021.6535            0   -4422.1325   -377.66607    63.980507    403.70268            0   -4.9054185   -3.4366934   -8.4653491    35609.694   -40461.908  2228000 
  -4657.5891    1000.5407   -3657.0484    1000.5407            0   -4290.8211   -366.76801    62.658329    395.36003            0   -2.6693667   -3.1300358   -4.4683267    35724.565    -40449.82  2230000 
  -4734.4799    997.53951   -3736.9404    997.53951            0   -4363.3834   -371.09651    62.470381    394.17412            0   -6.0547846   -8.2838111   -4.9782252    35724.031   -40461.167  2232000 
  -4753.4462    1009.6996   -3743.7466    1009.6996            0   -4378.7936   -374.65263    63.231902    398.97915            0    -3.236765   -2.4408383   -4.1160403    35640.172    -40456.03  2234000 
  -4785.5788    980.46299   -3805.1158    980.46299            0   -4405.5235   -380.05523    61.400973     387.4264            0   -7.8729376   -8.4775691   -10.777538    35739.765   -40458.117  2236000 
  -4816.2909    955.17823   -3861.1127    955.17823            0   -4439.1444   -377.14651    59.817529    377.43522            0   -5.9696687   -4.2208028   -8.5490682    35643.235   -40460.447  2238000 
  -4806.8407    988.89099   -3817.9497    988.89099            0   -4436.6933   -370.14741    61.928772    390.75669            0    -5.194544   -6.7044455    -7.163335    35630.813   -40464.241  2240000 
  -4802.6285    977.03357   -3825.5949    977.03357            0   -4420.8552   -381.77328    61.186208    386.07128            0   -5.4401739   -5.4818842   -9.0024483    35641.718   -40461.015  2242000 
  -4676.3323    1002.3782   -3673.9541    1002.3782            0   -4297.2815   -379.05078    62.773404    396.08613            0   -3.2955168  -0.79039169   -5.5872135    35768.626   -40455.896  2244000 
  -4768.3978    976.30023   -3792.0975    976.30023            0   -4395.3829   -373.01486    61.140283     385.7815            0   -2.4643622    2.3000994   -7.1988156    35641.269   -40461.273  2246000 
  -4760.3229    1024.6026   -3735.7203    1024.6026            0   -4383.8067   -376.51627    64.165196    404.86803            0    -4.965312   -1.1191842   -9.8777953    35704.192   -40465.219  2248000 
  -4729.1605    1019.5345    -3709.626    1019.5345            0   -4353.8797   -375.28077    63.847805    402.86536            0   -5.8252054   -4.6860294   -9.0899089    35743.349   -40455.128  2250000 
  -4742.0301    990.13361   -3751.8965    990.13361            0   -4366.4815   -375.54862    62.006591    391.24771            0   -6.4862933   -3.3317987   -9.3624383    35739.756   -40461.253  2252000 
  -4756.3495    994.81084   -3761.5387    994.81084            0   -4381.3885   -374.96101      62.2995     393.0959            0    -5.796941   -2.2815835   -8.1417976    35681.358   -40452.096  2254000 
  -4782.5847    1040.5645   -3742.0202    1040.5645            0   -4415.7876   -366.79712    65.164799     411.1753            0   -5.4609581   -5.5869396   -5.5344981    35632.127    -40458.55  2256000 
  -4732.7108    1013.0651   -3719.6457    1013.0651            0   -4361.0866   -371.62415    63.442664    400.30901            0   -6.1107963   -5.2374942   -8.3629114    35724.271   -40461.401  2258000 
  -4663.9057    1040.7837    -3623.122    1040.7837            0   -4289.2733   -374.63246    65.178526    411.26191            0   -5.3809237   -3.2460597     -7.41786    35802.916   -40451.282  2260000 
  -4768.7154    1070.1194    -3698.596    1070.1194            0   -4399.8614   -368.85396    67.015658     422.8538            0   -3.7657011   -1.8277605   -6.8834828    35632.983   -40464.026  2262000 
  -4802.5874    1021.3473   -3781.2401    1021.3473            0   -4423.2236   -379.36383     63.96133    403.58168            0   -4.3514521   -2.7232854   -7.2456122    35615.437   -40457.774  2264000 
  -4799.4191    992.57251   -3806.8466    992.57251            0   -4428.5628    -370.8563    62.159326    392.21144            0   -6.7852109   -5.7970774   -7.4407628    35667.276   -40466.803  2266000 
  -4746.8839    1018.3033   -3728.5806    1018.3033            0   -4372.9767   -373.90721    63.770702    402.37886            0   -2.9884888  -0.29464277   -3.1953776     35659.04   -40461.629  2268000 
  -4724.1386    1016.1249   -3708.0138    1016.1249            0   -4346.9563   -377.18236     63.63428    401.51806            0   -5.5403921   -2.8730672   -8.7109795    35750.923   -40452.577  2270000 
  -4770.5014    1030.8242   -3739.6772    1030.8242            0   -4392.8407   -377.66068     64.55482    407.32647            0   -5.7903493     -3.96293   -10.323825     35675.93   -40462.107  2272000 
  -4748.3617    1016.0516     -3732.31    1016.0516            0   -4367.9698    -380.3919    63.629694    401.48913            0   -5.0968368   -1.2502368   -11.573639    35710.815   -40449.535  2274000 
  -4811.5865    1013.0421   -3798.5444    1013.0421            0   -4430.9511   -380.63542    63.441223    400.29992            0   -5.4921192   -5.1360668   -10.681623    35640.348    -40466.79  2276000 
  -4733.2479    946.39243   -3786.8555    946.39243            0   -4367.7449   -365.50298    59.267323    373.96354            0   -6.1364792   -2.7816364   -9.7832426    35725.017   -40461.672  2278000 
  -4775.2372    949.38707   -3825.8501    949.38707            0   -4400.8325   -374.40467    59.454861    375.14687            0   -5.7745285   -3.0040208   -9.5616216    35647.264   -40449.979  2280000 
  -4819.2783    1018.9794    -3800.299    1018.9794            0   -4442.5404   -376.73797    63.813041    402.64601            0   -6.8267887   -6.8243037   -9.7700597    35649.885   -40455.406  2282000 
  -4764.3849    1031.6448   -3732.7401    1031.6448            0   -4382.1663   -382.21855    64.606206     407.6507            0   -3.6594762   0.90136236   -7.4759089    35668.537   -40463.089  2284000 
  -4785.2493    990.36557   -3794.8838    990.36557            0    -4408.552   -376.69732    62.021117    391.33937            0   -6.4497501   -6.4804585   -6.2996099     35667.65   -40457.974  2286000 
  -4730.2719    988.26484    -3742.007    988.26484            0   -4346.3725   -383.89932     61.88956    390.50927            0    -8.647879   -6.5187037   -11.035171     35790.28   -40465.262  2288000 
    -4798.94    1044.3232   -3754.6167    1044.3232            0   -4423.6313   -375.30864    65.400186    412.66054            0   -6.9813868   -2.8668608   -10.627575    35673.381   -40458.504  2290000 
  -4797.5989    1001.8673   -3795.7316    1001.8673            0   -4418.7731   -378.82584     62.74141    395.88425            0   -6.0859048   -1.6236052   -9.1868304    35620.114   -40464.824  2292000 
  -4684.3484    1004.2537   -3680.0947    1004.2537            0   -4308.9673   -375.38109    62.890856    396.82722            0   -7.3884296   -5.8071148   -10.486359    35805.021   -40453.648  2294000 
  -4733.7017    1022.6817     -3711.02    1022.6817            0    -4358.275   -375.42671      64.0449    404.10899            0    -6.052499   -6.9437191   -7.8683144    35722.063   -40456.769  2296000 
  -4707.5209    1001.9867   -3705.5341    1001.9867            0   -4330.2922   -377.22869    62.748886    395.93143            0   -2.4910608   0.56966098   -3.7672692    35694.216   -40460.703  2298000 
  -4751.4578    1045.2861   -3706.1717    1045.2861            0   -4375.7378      -375.72    65.460489    413.04103            0   -7.6695937   -8.0280729   -6.9794351      35753.5   -40452.591  2300000 
  -4751.1073    1009.6011   -3741.5062    1009.6011            0   -4369.3275   -381.77976    63.225729     398.9402            0   -4.5334392   -6.1322568    -4.298454    35688.735     -40458.1  2302000 
  -4790.6802    1010.7526   -3779.9276    1010.7526            0   -4418.3118   -372.36836    63.297846    399.39525            0   -6.7664298   -7.1453924   -9.2523008    35697.412   -40464.765  2304000 
  -4768.5823    973.11239   -3795.4699    973.11239            0   -4395.4613   -373.12093    60.940646    384.52184            0   -5.4140842   -3.7565866   -9.0540654    35662.001   -40457.623  2306000 
  -4806.3252    1019.8032    -3786.522    1019.8032            0   -4434.0599   -372.26523    63.864634    402.97155            0   -7.4909476   -2.3711766   -12.929274    35667.616   -40462.267  2308000 
  -4748.6469    1023.4383   -3725.2086    1023.4383            0   -4375.6062   -373.04069    64.092278    404.40793            0   -6.5161409   -5.5766487   -5.3320011      35721.7   -40456.936  2310000 
  -4724.9812    1065.3771   -3659.6041    1065.3771            0   -4352.3312   -372.64995    66.718673     420.9799            0   -5.5697527   -3.8391575    -8.838463    35731.924   -40459.801  2312000 
  -4674.1107    1046.1059   -3628.0048    1046.1059            0   -4310.0851   -364.02557    65.511827    413.36497            0    -4.553485   -1.5031416   -7.4695364     35768.49   -40463.777  2314000 
  -4763.4607    1003.5132   -3759.9475    1003.5132            0   -4386.1692   -377.29153    62.844481    396.53461            0   -5.7531644       -3.607   -9.2432131    35685.275   -40461.205  2316000 
   -4680.938     990.1982   -3690.7398     990.1982            0   -4311.1585   -369.77952    62.010636    391.27323            0   -6.4930142   -4.6430984   -10.346823    35797.241   -40457.853  2318000 
  -4729.5322    1029.0989   -3700.4333    1029.0989            0   -4357.3325   -372.19968    64.446772    406.64471            0   -4.4373132   -3.2187753   -9.8389727    35721.128   -40453.134  2320000 
  -4798.0006    1037.2461   -3760.7545    1037.2461            0   -4415.3145   -382.68609    64.956986    409.86405            0   -7.5486097   -7.1409276    -9.325897    35681.963   -40460.502  2322000 
  -4705.5633    978.37308   -3727.1902    978.37308            0   -4322.2988   -383.26447    61.270094    386.60058            0   -7.1624723    -5.496267   -12.303426    35810.058   -40454.778  2324000 
  -4732.6287    994.08939   -3738.5393    994.08939            0   -4355.4621   -377.16657     62.25432    392.81082            0    -5.290998   -5.5148903   -6.0872695    35750.392    -40460.01  2326000 
  -4793.1241    1039.1138   -3754.0102    1039.1138            0   -4410.9047   -382.21933    65.073951    410.60207            0   -3.4141357   -2.1770687   -4.8099424    35624.996   -40459.211  2328000 
  -4711.2064    1030.3004   -3680.9059    1030.3004            0   -4330.0599   -381.14641    64.522015    407.11948            0   -2.2390794    1.5988905   -4.7707533    35707.572   -40458.148  2330000 
  -4721.0457    982.25661   -3738.7891    982.25661            0   -4342.9446   -378.10112    61.513298    388.13514            0   -3.1991256    -1.873581   -7.4449168    35702.862   -40461.624  2332000 
  -4714.2903    1004.7849   -3709.5054    1004.7849            0   -4344.1675   -370.12276     62.92412    397.03711            0   -5.3646936   -3.5812855   -6.2477419    35722.726   -40451.647  2334000 
  -4694.7082    1011.3863   -3683.3219    1011.3863            0   -4315.0019   -379.70625     63.33753    399.64564            0    -5.418722   -2.5202415   -8.4030323    35763.575       -40453  2335165 
Loop time of 34292.4 on 16 procs for 2000000 steps with 5783 atoms

Performance: 5.039 ns/day, 4.763 hours/ns, 58.322 timesteps/s
83.8% CPU use with 16 MPI tasks x 1 OpenMP threads

MPI task timing breakdown:
Section |  min time  |  avg time  |  max time  |%varavg| %total
---------------------------------------------------------------
Pair    | 1351.4     | 3246.2     | 6387.6     |2238.5 |  9.47
Bond    | 0.805      | 0.93565    | 1.2084     |  10.1 |  0.00
Kspace  | 26989      | 30007      | 31878      | 718.5 | 87.50
Neigh   | 194.42     | 195.69     | 197.16     |   5.9 |  0.57
Comm    | 159.71     | 308.49     | 604.06     | 793.2 |  0.90
Output  | 94.04      | 131.62     | 317.79     | 472.3 |  0.38
Modify  | 217.53     | 290.86     | 393.62     | 311.2 |  0.85
Other   |            | 111.7      |            |       |  0.33

Nlocal:    361.438 ave 565 max 273 min
Histogram: 5 0 0 7 3 0 0 0 0 1
Nghost:    570.312 ave 775 max 427 min
Histogram: 3 0 3 0 1 8 0 0 0 1
Neighs:    63106.8 ave 120323 max 26786 min
Histogram: 5 0 0 0 4 5 1 0 0 1

Total # of neighbors = 1009709
Ave neighs/atom = 174.6
Ave special neighs/atom = 0.440948
Neighbor list builds = 104831
Dangerous builds = 0

unfix nvt1



#-----------------------------------------------------------
dump	      13 all custom 1 therm-${label}-therm.lammpstrj id element type x y z
dump	      13 all custom 1 therm-C_25_7_14-therm.lammpstrj id element type x y z
dump_modify   13 element C H O
run 0
PPPM initialization ...
  extracting TIP4P info from pair style
  using 12-bit tables for long-range coulomb (../kspace.cpp:323)
  G vector (1/distance) = 0.243877
  grid = 64 64 96
  stencil order = 5
  estimated absolute RMS force accuracy = 0.00381426
  estimated relative force accuracy = 1.14865e-05
  using double precision KISS FFT
  3d grid and FFT values/proc = 52371 24576
No /omp style for force computation currently active
Per MPI rank memory allocation (min/avg/max) = 17.22 | 17.27 | 17.62 Mbytes
PotEng KinEng TotEng c_ke_H2O c_ke_CNT c_pe_sumH2O c_pe_sumCNT Temp c_temwater c_temcnt Press Pxx Pzz E_coul E_long Step 
  -4694.7082    1011.3863   -3683.3219    1011.3863            0   -4315.0019   -379.70625     63.33753    399.64564            0   -5.4140074   -2.5153471    -8.398277    35763.575       -40453  2335165 
Loop time of 1.88202e-05 on 16 procs for 0 steps with 5783 atoms

96.0% CPU use with 16 MPI tasks x 1 OpenMP threads

MPI task timing breakdown:
Section |  min time  |  avg time  |  max time  |%varavg| %total
---------------------------------------------------------------
Pair    | 0          | 0          | 0          |   0.0 |  0.00
Bond    | 0          | 0          | 0          |   0.0 |  0.00
Kspace  | 0          | 0          | 0          |   0.0 |  0.00
Neigh   | 0          | 0          | 0          |   0.0 |  0.00
Comm    | 0          | 0          | 0          |   0.0 |  0.00
Output  | 0          | 0          | 0          |   0.0 |  0.00
Modify  | 0          | 0          | 0          |   0.0 |  0.00
Other   |            | 1.882e-05  |            |       |100.00

Nlocal:    361.438 ave 566 max 273 min
Histogram: 5 0 0 8 2 0 0 0 0 1
Nghost:    570.25 ave 776 max 427 min
Histogram: 3 0 3 0 1 8 0 0 0 1
Neighs:    63099.8 ave 120481 max 26786 min
Histogram: 5 0 0 0 4 5 1 0 0 1

Total # of neighbors = 1009597
Ave neighs/atom = 174.58
Ave special neighs/atom = 0.440948
Neighbor list builds = 0
Dangerous builds = 0
undump 13


write_restart restart-${label}-therm.lammps
write_restart restart-C_25_7_14-therm.lammps
PPPM initialization ...
  extracting TIP4P info from pair style
  using 12-bit tables for long-range coulomb (../kspace.cpp:323)
  G vector (1/distance) = 0.243877
  grid = 64 64 96
  stencil order = 5
  estimated absolute RMS force accuracy = 0.00381426
  estimated relative force accuracy = 1.14865e-05
  using double precision KISS FFT
  3d grid and FFT values/proc = 52371 24576
No /omp style for force computation currently active




#END.
Total wall time: 11:04:13
