ITEM: TIMESTEP
2335165
ITEM: NUMBER OF ATOMS
5783
ITEM: BOX BOUNDS pp pp pp
0.0000000000000000e+00 1.5000000000000000e+02
0.0000000000000000e+00 1.5000000000000000e+02
0.0000000000000000e+00 2.5000000000000000e+02
ITEM: ATOMS id element type x y z 
126 C 1 71.646 68.574 5.895 
127 C 1 72.065 68.372 7.235 
128 C 1 73.386 67.934 7.503 
138 C 1 72.065 68.372 3.484 
139 C 1 72.496 68.198 4.824 
140 C 1 73.842 67.845 5.092 
141 C 1 74.303 67.785 6.431 
148 C 1 72.496 68.198 1.072 
149 C 1 72.937 68.051 2.412 
150 C 1 74.303 67.785 2.68 
151 C 1 74.767 67.756 4.02 
161 C 1 73.386 67.934 0 
162 C 1 74.767 67.756 0.268 
4429 C 1 71.646 68.574 7.258 
4430 C 1 72.937 68.051 7.526 
4438 C 1 71.646 68.574 3.506 
4439 C 1 72.065 68.372 4.846 
4440 C 1 73.386 67.934 5.114 
4441 C 1 73.842 67.845 6.454 
4450 C 1 72.065 68.372 1.094 
4451 C 1 72.496 68.198 2.434 
4452 C 1 73.842 67.845 2.702 
4453 C 1 74.303 67.785 4.042 
4461 C 1 72.937 68.051 0.022 
4462 C 1 74.303 67.785 0.29 
4463 C 1 74.767 67.756 1.63 
142 C 1 75.695 67.785 6.699 
152 C 1 76.156 67.845 4.288 
153 C 1 76.612 67.934 5.628 
154 C 1 77.933 68.372 5.895 
155 C 1 78.352 68.574 7.235 
163 C 1 75.231 67.756 1.608 
164 C 1 76.612 67.934 1.876 
165 C 1 77.061 68.051 3.216 
166 C 1 78.352 68.574 3.484 
175 C 1 77.502 68.198 0.804 
4442 C 1 75.231 67.756 6.722 
4454 C 1 75.695 67.785 4.31 
4455 C 1 76.156 67.845 5.65 
4456 C 1 77.502 68.198 5.918 
4457 C 1 77.933 68.372 7.258 
4464 C 1 76.156 67.845 1.898 
4465 C 1 76.612 67.934 3.238 
4466 C 1 77.933 68.372 3.506 
4467 C 1 78.352 68.574 4.846 
4477 C 1 77.061 68.051 0.826 
4478 C 1 78.352 68.574 1.094 
98 C 1 67.885 73.614 5.895 
99 C 1 67.988 73.161 7.235 
100 C 1 68.469 71.855 7.503 
109 C 1 67.766 74.536 3.216 
110 C 1 67.988 73.161 3.484 
111 C 1 68.12 72.716 4.824 
112 C 1 68.684 71.443 5.092 
119 C 1 67.81 74.073 0.804 
120 C 1 68.12 72.716 1.072 
121 C 1 68.281 72.28 2.412 
133 C 1 68.469 71.855 0 
4400 C 1 67.81 74.073 5.918 
4401 C 1 67.885 73.614 7.258 
4402 C 1 68.281 72.28 7.526 
4410 C 1 67.885 73.614 3.506 
4411 C 1 67.988 73.161 4.846 
4412 C 1 68.469 71.855 5.114 
4413 C 1 68.684 71.443 6.454 
4421 C 1 67.766 74.536 0.826 
4422 C 1 67.988 73.161 1.094 
4423 C 1 68.12 72.716 2.434 
4424 C 1 68.684 71.443 2.702 
4433 C 1 68.281 72.28 0.022 
113 C 1 68.924 71.046 6.431 
114 C 1 69.792 69.958 6.699 
122 C 1 68.924 71.046 2.68 
123 C 1 69.19 70.665 4.02 
124 C 1 70.126 69.634 4.288 
125 C 1 70.48 69.333 5.628 
134 C 1 69.19 70.665 0.268 
135 C 1 69.48 70.302 1.608 
136 C 1 70.48 69.333 1.876 
137 C 1 70.852 69.055 3.216 
147 C 1 71.242 68.802 0.804 
4414 C 1 69.48 70.302 6.722 
4425 C 1 68.924 71.046 4.042 
4426 C 1 69.792 69.958 4.31 
4427 C 1 70.126 69.634 5.65 
4428 C 1 71.242 68.802 5.918 
4434 C 1 68.924 71.046 0.29 
4435 C 1 69.19 70.665 1.63 
4436 C 1 70.126 69.634 1.898 
4437 C 1 70.48 69.333 3.238 
4449 C 1 70.852 69.055 0.826 
5094 O 3 71.1803 74.9394 1.42497 
4595 H 2 73.0088 71.9035 2.19366 
5687 H 2 73.8892 72.3194 4.75017 
5685 O 3 74.3916 72.7782 5.42347 
5686 H 2 74.7611 73.537 4.97192 
4594 H 2 72.6966 72.6111 3.49515 
4593 O 3 73.1863 71.8722 3.13374 
4769 H 2 70.9283 73.3523 4.80266 
4767 O 3 71.2569 73.748 3.99538 
5109 O 3 72.0001 72.3201 6.83313 
5110 H 2 72.8913 72.4155 6.49708 
5095 H 2 70.6975 74.5214 2.13801 
4768 H 2 71.414 74.6641 4.22379 
5012 H 2 71.3858 73.7386 0.0980351 
5562 O 3 74.1991 71.8597 0.189771 
4744 H 2 71.2533 73.8543 7.65081 
5111 H 2 72.1148 72.0456 7.74292 
5059 H 2 77.4407 72.2302 6.89062 
5058 O 3 77.0269 72.1434 6.03188 
5060 H 2 76.1476 72.5021 6.15184 
5029 H 2 76.0559 71.0832 4.15771 
5030 H 2 75.0182 71.3597 3.09064 
5028 O 3 75.957 71.4209 3.26753 
156 C 1 79.518 69.333 7.503 
167 C 1 78.756 68.802 4.824 
168 C 1 79.872 69.634 5.092 
169 C 1 80.206 69.958 6.431 
170 C 1 81.074 71.046 6.699 
176 C 1 78.756 68.802 1.072 
177 C 1 79.146 69.055 2.412 
178 C 1 80.206 69.958 2.68 
179 C 1 80.518 70.302 4.02 
185 C 1 79.518 69.333 0 
186 C 1 80.518 70.302 0.268 
187 C 1 80.808 70.665 1.608 
4458 C 1 79.146 69.055 7.526 
4468 C 1 79.518 69.333 5.114 
4469 C 1 79.872 69.634 6.454 
4470 C 1 80.808 70.665 6.722 
4479 C 1 78.756 68.802 2.434 
4480 C 1 79.872 69.634 2.702 
4481 C 1 80.206 69.958 4.042 
4482 C 1 81.074 71.046 4.31 
4489 C 1 79.146 69.055 0.022 
4490 C 1 80.206 69.958 0.29 
4491 C 1 80.518 70.302 1.63 
4775 H 2 78.1937 72.7822 4.42965 
4774 H 2 77.6141 72.2572 3.13341 
4773 O 3 78.3369 72.7782 3.48322 
5490 O 3 78.5079 74.3112 0.813598 
5492 H 2 77.5619 74.4571 0.812782 
5491 H 2 78.6653 73.7618 1.58147 
5648 H 2 75.7664 73.8648 1.62471 
5646 O 3 75.9214 74.6524 1.10318 
5564 H 2 75.0807 71.5599 0.411532 
5647 H 2 75.4264 74.5075 0.296832 
180 C 1 81.314 71.443 4.288 
181 C 1 81.529 71.855 5.628 
182 C 1 82.01 73.161 5.895 
183 C 1 82.113 73.614 7.235 
188 C 1 81.529 71.855 1.876 
189 C 1 81.717 72.28 3.216 
190 C 1 82.113 73.614 3.484 
191 C 1 82.188 74.073 4.824 
193 C 1 81.878 72.716 0.804 
194 C 1 82.188 74.073 1.072 
195 C 1 82.232 74.536 2.412 
4483 C 1 81.314 71.443 5.65 
4484 C 1 81.878 72.716 5.918 
4485 C 1 82.01 73.161 7.258 
4486 C 1 82.232 74.536 7.526 
4492 C 1 81.314 71.443 1.898 
4493 C 1 81.529 71.855 3.238 
4494 C 1 82.01 73.161 3.506 
4495 C 1 82.113 73.614 4.846 
4501 C 1 81.717 72.28 0.826 
4502 C 1 82.113 73.614 1.094 
4503 C 1 82.188 74.073 2.434 
4507 C 1 82.232 74.536 0.022 
72 C 1 68.469 78.145 7.503 
84 C 1 68.281 77.72 5.092 
85 C 1 68.12 77.284 6.431 
86 C 1 67.81 75.927 6.699 
93 C 1 68.684 78.557 2.412 
94 C 1 68.12 77.284 2.68 
95 C 1 67.988 76.839 4.02 
96 C 1 67.766 75.464 4.288 
97 C 1 67.751 75 5.628 
105 C 1 68.469 78.145 0 
106 C 1 67.988 76.839 0.268 
107 C 1 67.885 76.386 1.608 
108 C 1 67.751 75 1.876 
4374 C 1 68.684 78.557 7.526 
4384 C 1 68.469 78.145 5.114 
4385 C 1 68.281 77.72 6.454 
4386 C 1 67.885 76.386 6.722 
4396 C 1 68.281 77.72 2.702 
4397 C 1 68.12 77.284 4.042 
4398 C 1 67.81 75.927 4.31 
4399 C 1 67.766 75.464 5.65 
4405 C 1 68.684 78.557 0.022 
4406 C 1 68.12 77.284 0.29 
4407 C 1 67.988 76.839 1.63 
4408 C 1 67.766 75.464 1.898 
4409 C 1 67.751 75 3.238 
5096 H 2 71.3775 75.8175 1.75098 
58 C 1 71.242 81.198 6.699 
68 C 1 70.852 80.945 4.288 
69 C 1 70.48 80.667 5.628 
70 C 1 69.48 79.698 5.895 
71 C 1 69.19 79.335 7.235 
80 C 1 70.48 80.667 1.876 
81 C 1 70.126 80.366 3.216 
82 C 1 69.19 79.335 3.484 
83 C 1 68.924 78.954 4.824 
91 C 1 69.792 80.042 0.804 
92 C 1 68.924 78.954 1.072 
4370 C 1 71.242 81.198 4.31 
4371 C 1 70.852 80.945 5.65 
4372 C 1 69.792 80.042 5.918 
4373 C 1 69.48 79.698 7.258 
4380 C 1 70.852 80.945 1.898 
4381 C 1 70.48 80.667 3.238 
4382 C 1 69.48 79.698 3.506 
4383 C 1 69.19 79.335 4.846 
4393 C 1 70.126 80.366 0.826 
4394 C 1 69.19 79.335 1.094 
4395 C 1 68.924 78.954 2.434 
5172 O 3 71.4831 76.1852 5.48645 
5174 H 2 71.8451 77.0644 5.59707 
5173 H 2 71.2155 75.9232 6.36737 
5019 O 3 74.4528 75.6756 6.55263 
5021 H 2 73.5999 75.6192 6.12181 
4881 O 3 72.3424 77.4224 2.69998 
4882 H 2 72.0302 77.0697 3.53321 
5101 H 2 73.5617 78.8596 5.71517 
5100 O 3 72.8771 78.35 6.14851 
5102 H 2 73.0395 78.4759 7.08337 
4883 H 2 73.0929 77.9675 2.93632 
5123 H 2 74.8769 79.8069 1.99207 
5782 H 2 74.9555 75.7338 3.01205 
4919 H 2 78.5679 75.0734 3.55011 
5020 H 2 75.0834 75.7087 5.83322 
5121 O 3 75.0639 78.8697 2.04532 
5122 H 2 75.6511 78.6999 1.30867 
5091 O 3 78.4521 77.0066 1.24152 
5093 H 2 78.3944 76.1288 0.864114 
4677 O 3 75.4545 78.611 4.71753 
4678 H 2 75.6136 78.7174 3.77968 
4679 H 2 76.3085 78.3767 5.08081 
4917 O 3 78.4952 75.9873 3.82517 
4918 H 2 78.7387 76.4916 3.04888 
4826 H 2 78.0693 77.6447 6.6162 
5783 H 2 76.184 76.0093 3.8528 
4825 H 2 78.1406 77.0968 5.20675 
4824 O 3 77.7495 77.7985 5.7272 
14 C 1 80.808 79.335 5.895 
15 C 1 80.518 79.698 7.235 
16 C 1 79.518 80.667 7.503 
26 C 1 80.518 79.698 3.484 
27 C 1 80.206 80.042 4.824 
28 C 1 79.146 80.945 5.092 
29 C 1 78.756 81.198 6.431 
35 C 1 81.074 78.954 0.804 
36 C 1 80.206 80.042 1.072 
37 C 1 79.872 80.366 2.412 
38 C 1 78.756 81.198 2.68 
49 C 1 79.518 80.667 0 
4320 C 1 81.074 78.954 5.918 
4321 C 1 80.808 79.335 7.258 
4322 C 1 79.872 80.366 7.526 
4326 C 1 80.808 79.335 3.506 
4327 C 1 80.518 79.698 4.846 
4328 C 1 79.518 80.667 5.114 
4329 C 1 79.146 80.945 6.454 
4338 C 1 80.518 79.698 1.094 
4339 C 1 80.206 80.042 2.434 
4340 C 1 79.146 80.945 2.702 
4341 C 1 78.756 81.198 4.042 
4349 C 1 79.872 80.366 0.022 
4350 C 1 78.756 81.198 0.29 
5781 O 3 75.3455 75.5477 3.86615 
5092 H 2 77.7099 77.4791 0.864576 
4889 H 2 75.2165 78.7856 6.78061 
4887 O 3 75.3579 78.7465 7.72649 
5 C 1 82.188 75.927 6.431 
6 C 1 81.878 77.284 6.699 
11 C 1 82.113 76.386 4.02 
12 C 1 81.717 77.72 4.288 
13 C 1 81.529 78.145 5.628 
21 C 1 82.247 75 0 
22 C 1 82.113 76.386 0.268 
23 C 1 82.01 76.839 1.608 
24 C 1 81.529 78.145 1.876 
25 C 1 81.314 78.557 3.216 
184 C 1 82.247 75 7.503 
192 C 1 82.232 75.464 5.092 
196 C 1 82.188 75.927 2.68 
4313 C 1 82.232 75.464 6.454 
4314 C 1 82.01 76.839 6.722 
4317 C 1 82.188 75.927 4.042 
4318 C 1 81.878 77.284 4.31 
4319 C 1 81.717 77.72 5.65 
4323 C 1 82.113 76.386 1.63 
4324 C 1 81.717 77.72 1.898 
4325 C 1 81.529 78.145 3.238 
4337 C 1 81.314 78.557 0.826 
4496 C 1 82.247 75 5.114 
4504 C 1 82.232 75.464 2.702 
4508 C 1 82.188 75.927 0.29 
43 C 1 74.767 82.244 7.235 
44 C 1 73.386 82.066 7.503 
54 C 1 74.767 82.244 3.484 
55 C 1 74.303 82.215 4.824 
56 C 1 72.937 81.949 5.092 
57 C 1 72.496 81.802 6.431 
64 C 1 74.303 82.215 1.072 
65 C 1 73.842 82.155 2.412 
66 C 1 72.496 81.802 2.68 
67 C 1 72.065 81.628 4.02 
77 C 1 73.386 82.066 0 
78 C 1 72.065 81.628 0.268 
79 C 1 71.646 81.426 1.608 
4346 C 1 73.842 82.155 7.526 
4355 C 1 74.767 82.244 4.846 
4356 C 1 73.386 82.066 5.114 
4357 C 1 72.937 81.949 6.454 
4358 C 1 71.646 81.426 6.722 
4366 C 1 74.767 82.244 1.094 
4367 C 1 74.303 82.215 2.434 
4368 C 1 72.937 81.949 2.702 
4369 C 1 72.496 81.802 4.042 
4377 C 1 73.842 82.155 0.022 
4378 C 1 72.496 81.802 0.29 
4379 C 1 72.065 81.628 1.63 
30 C 1 77.502 81.802 6.699 
39 C 1 78.352 81.426 4.02 
40 C 1 77.061 81.949 4.288 
41 C 1 76.612 82.066 5.628 
42 C 1 75.231 82.244 5.895 
50 C 1 78.352 81.426 0.268 
51 C 1 77.933 81.628 1.608 
52 C 1 76.612 82.066 1.876 
53 C 1 76.156 82.155 3.216 
63 C 1 75.695 82.215 0.804 
4330 C 1 77.933 81.628 6.722 
4342 C 1 77.502 81.802 4.31 
4343 C 1 77.061 81.949 5.65 
4344 C 1 75.695 82.215 5.918 
4345 C 1 75.231 82.244 7.258 
4351 C 1 78.352 81.426 1.63 
4352 C 1 77.061 81.949 1.898 
4353 C 1 76.612 82.066 3.238 
4354 C 1 75.231 82.244 3.506 
4365 C 1 76.156 82.155 0.826 
117 C 1 71.646 68.574 9.647 
118 C 1 72.937 68.051 9.915 
129 C 1 73.842 67.845 8.843 
334 C 1 72.065 68.372 14.739 
344 C 1 72.496 68.198 12.327 
345 C 1 72.937 68.051 13.667 
346 C 1 74.303 67.785 13.935 
347 C 1 74.767 67.756 15.275 
357 C 1 73.386 67.934 11.255 
358 C 1 74.767 67.756 11.523 
130 C 1 75.231 67.756 9.111 
131 C 1 75.695 67.785 10.451 
132 C 1 77.061 68.051 10.719 
143 C 1 76.156 67.845 8.039 
144 C 1 77.502 68.198 8.307 
145 C 1 77.933 68.372 9.647 
348 C 1 76.156 67.845 15.543 
359 C 1 75.231 67.756 12.863 
360 C 1 76.612 67.934 13.131 
361 C 1 77.061 68.051 14.471 
362 C 1 78.352 68.574 14.739 
371 C 1 77.502 68.198 12.059 
4443 C 1 75.695 67.785 8.062 
4444 C 1 77.061 68.051 8.33 
76 C 1 67.766 74.536 10.719 
88 C 1 67.81 74.073 8.307 
89 C 1 67.885 73.614 9.647 
90 C 1 68.281 72.28 9.915 
101 C 1 68.684 71.443 8.843 
305 C 1 67.766 74.536 14.471 
306 C 1 67.988 73.161 14.739 
315 C 1 67.81 74.073 12.059 
316 C 1 68.12 72.716 12.327 
317 C 1 68.281 72.28 13.667 
329 C 1 68.469 71.855 11.255 
4388 C 1 67.766 74.536 8.33 
5053 H 2 73.8396 73.4446 11.909 
5052 O 3 73.4496 74.0398 11.2688 
5054 H 2 74.0386 74.0013 10.5153 
5435 H 2 72.3269 72.0702 9.92127 
5433 O 3 72.8122 71.5063 9.31902 
5434 H 2 73.6075 71.2723 9.79752 
5125 H 2 71.0989 72.8143 12.4222 
5126 H 2 71.2002 71.4408 13.0508 
102 C 1 69.48 70.302 9.111 
103 C 1 69.792 69.958 10.451 
104 C 1 70.852 69.055 10.719 
115 C 1 70.126 69.634 8.039 
116 C 1 71.242 68.802 8.307 
318 C 1 68.924 71.046 13.935 
319 C 1 69.19 70.665 15.275 
320 C 1 70.126 69.634 15.543 
330 C 1 69.19 70.665 11.523 
331 C 1 69.48 70.302 12.863 
332 C 1 70.48 69.333 13.131 
333 C 1 70.852 69.055 14.471 
343 C 1 71.242 68.802 12.059 
4415 C 1 69.792 69.958 8.062 
4416 C 1 70.852 69.055 8.33 
5124 O 3 71.7286 72.1293 12.6469 
4808 H 2 73.9328 72.7186 14.7813 
4807 H 2 73.7001 71.9863 13.4769 
4806 O 3 74.3138 72.576 13.9148 
5266 H 2 71.7126 74.7365 11.0113 
4743 O 3 71.1517 74.6964 8.09433 
4745 H 2 70.7197 74.4817 8.92105 
5265 O 3 70.7691 74.8734 10.9262 
4998 O 3 75.2563 71.1222 10.5734 
4967 H 2 75.8303 71.9419 13.3858 
4965 O 3 76.5468 71.405 13.0473 
4954 H 2 75.0324 74.7917 8.02633 
4953 O 3 75.2899 74.4612 8.88695 
5207 H 2 79.691 74.0232 13.1555 
5074 H 2 75.397 74.5667 13.6014 
5050 H 2 77.1406 73.3479 8.39758 
4999 H 2 75.9838 71.1705 9.95315 
5000 H 2 75.6567 71.29 11.4264 
5051 H 2 78.1756 72.5503 9.16215 
5049 O 3 77.9991 72.9351 8.30365 
4708 H 2 77.9136 72.3808 11.9574 
4707 O 3 78.2564 72.7031 11.1238 
4709 H 2 78.143 73.6525 11.1687 
4966 H 2 76.729 70.7787 13.7479 
146 C 1 79.146 69.055 9.915 
157 C 1 79.872 69.634 8.843 
158 C 1 80.808 70.665 9.111 
159 C 1 81.074 71.046 10.451 
372 C 1 78.756 68.802 12.327 
373 C 1 79.146 69.055 13.667 
374 C 1 80.206 69.958 13.935 
375 C 1 80.518 70.302 15.275 
381 C 1 79.518 69.333 11.255 
382 C 1 80.518 70.302 11.523 
383 C 1 80.808 70.665 12.863 
4471 C 1 81.074 71.046 8.062 
5205 O 3 79.1266 74.541 13.7297 
5206 H 2 79.4028 74.3039 14.615 
160 C 1 81.717 72.28 10.719 
171 C 1 81.314 71.443 8.039 
172 C 1 81.878 72.716 8.307 
173 C 1 82.01 73.161 9.647 
174 C 1 82.232 74.536 9.915 
376 C 1 81.314 71.443 15.543 
384 C 1 81.529 71.855 13.131 
385 C 1 81.717 72.28 14.471 
386 C 1 82.113 73.614 14.739 
389 C 1 81.878 72.716 12.059 
390 C 1 82.188 74.073 12.327 
391 C 1 82.232 74.536 13.667 
4472 C 1 81.717 72.28 8.33 
62 C 1 68.684 78.557 9.915 
73 C 1 68.281 77.72 8.843 
74 C 1 67.885 76.386 9.111 
75 C 1 67.81 75.927 10.451 
87 C 1 67.766 75.464 8.039 
289 C 1 68.684 78.557 13.667 
290 C 1 68.12 77.284 13.935 
291 C 1 67.988 76.839 15.275 
292 C 1 67.766 75.464 15.543 
301 C 1 68.469 78.145 11.255 
302 C 1 67.988 76.839 11.523 
303 C 1 67.885 76.386 12.863 
304 C 1 67.751 75 13.131 
4387 C 1 67.81 75.927 8.062 
4996 H 2 71.2744 75.0914 14.2757 
5566 H 2 72.8344 77.2731 10.7654 
5565 O 3 72.6085 77.2978 11.6952 
5567 H 2 73.2065 77.9443 12.0703 
5039 H 2 74.1801 77.778 8.71834 
5037 O 3 73.4089 77.3446 9.0838 
47 C 1 71.242 81.198 10.451 
48 C 1 70.126 80.366 10.719 
59 C 1 70.852 80.945 8.039 
60 C 1 69.792 80.042 8.307 
61 C 1 69.48 79.698 9.647 
264 C 1 70.852 80.945 15.543 
276 C 1 70.48 80.667 13.131 
277 C 1 70.126 80.366 14.471 
278 C 1 69.19 79.335 14.739 
287 C 1 69.792 80.042 12.059 
288 C 1 68.924 78.954 12.327 
4359 C 1 71.242 81.198 8.062 
4360 C 1 70.126 80.366 8.33 
5038 H 2 73.2952 76.562 8.54436 
4903 H 2 73.969 78.5632 13.6976 
5267 H 2 70.6684 75.8238 10.8728 
4902 O 3 74.3239 78.9164 12.8818 
4904 H 2 73.9822 79.8095 12.8382 
4995 O 3 71.9328 75.676 14.6512 
4997 H 2 72.6407 75.6854 14.007 
5075 H 2 74.7849 75.714 12.826 
5073 O 3 74.8293 75.3309 13.7021 
5708 H 2 72.6852 77.2951 15.288 
5706 O 3 73.0978 78.0948 15.6143 
4955 H 2 75.7965 75.174 9.27607 
4689 O 3 76.2998 77.6745 10.9583 
4690 H 2 76.8677 77.4286 11.6886 
4771 H 2 77.9907 76.5104 8.84701 
5734 H 2 78.8376 76.0277 11.2154 
5733 O 3 78.8958 75.4713 10.4387 
4772 H 2 77.1959 77.6916 9.36169 
4770 O 3 77.6543 77.3678 8.58633 
5735 H 2 79.8293 75.4503 10.2279 
4888 H 2 76.2262 78.3554 7.8233 
8 C 1 81.074 78.954 8.307 
9 C 1 80.808 79.335 9.647 
10 C 1 79.872 80.366 9.915 
17 C 1 79.146 80.945 8.843 
222 C 1 80.518 79.698 14.739 
231 C 1 81.074 78.954 12.059 
232 C 1 80.206 80.042 12.327 
233 C 1 79.872 80.366 13.667 
234 C 1 78.756 81.198 13.935 
245 C 1 79.518 80.667 11.255 
4875 O 3 78.4522 77.2076 13.0435 
4691 H 2 75.558 78.1179 11.3699 
4877 H 2 78.7606 76.4268 13.5033 
4876 H 2 79.0966 77.8823 13.2573 
5752 H 2 75.2135 75.3648 15.4627 
1 C 1 82.232 75.464 8.843 
2 C 1 82.01 76.839 9.111 
3 C 1 81.878 77.284 10.451 
4 C 1 81.314 78.557 10.719 
7 C 1 81.717 77.72 8.039 
207 C 1 82.113 76.386 15.275 
208 C 1 81.717 77.72 15.543 
217 C 1 82.247 75 11.255 
218 C 1 82.113 76.386 11.523 
219 C 1 82.01 76.839 12.863 
220 C 1 81.529 78.145 13.131 
221 C 1 81.314 78.557 14.471 
392 C 1 82.188 75.927 13.935 
4315 C 1 81.878 77.284 8.062 
4316 C 1 81.314 78.557 8.33 
273 C 1 73.386 82.066 11.255 
46 C 1 71.646 81.426 9.111 
275 C 1 71.646 81.426 12.863 
263 C 1 72.065 81.628 15.275 
260 C 1 74.303 82.215 12.327 
45 C 1 72.937 81.949 8.843 
262 C 1 72.496 81.802 13.935 
274 C 1 72.065 81.628 11.523 
261 C 1 73.842 82.155 13.667 
34 C 1 73.842 82.155 9.915 
250 C 1 74.767 82.244 14.739 
247 C 1 77.933 81.628 12.863 
20 C 1 76.156 82.155 10.719 
31 C 1 77.061 81.949 8.039 
246 C 1 78.352 81.426 11.523 
235 C 1 78.352 81.426 15.275 
249 C 1 76.156 82.155 14.471 
18 C 1 77.933 81.628 9.111 
4332 C 1 76.156 82.155 8.33 
259 C 1 75.695 82.215 12.059 
236 C 1 77.061 81.949 15.543 
33 C 1 75.231 82.244 9.647 
32 C 1 75.695 82.215 8.307 
4331 C 1 77.502 81.802 8.062 
19 C 1 77.502 81.802 10.451 
248 C 1 76.612 82.066 13.131 
313 C 1 71.646 68.574 20.902 
314 C 1 72.937 68.051 21.17 
322 C 1 71.646 68.574 17.151 
323 C 1 72.065 68.372 18.49 
324 C 1 73.386 67.934 18.758 
325 C 1 73.842 67.845 20.098 
335 C 1 72.496 68.198 16.079 
336 C 1 73.842 67.845 16.347 
337 C 1 74.303 67.785 17.686 
553 C 1 73.386 67.934 22.51 
554 C 1 74.767 67.756 22.778 
326 C 1 75.231 67.756 20.366 
327 C 1 75.695 67.785 21.706 
328 C 1 77.061 68.051 21.974 
338 C 1 75.695 67.785 17.954 
339 C 1 76.156 67.845 19.294 
340 C 1 77.502 68.198 19.562 
341 C 1 77.933 68.372 20.902 
349 C 1 76.612 67.934 16.883 
350 C 1 77.933 68.372 17.151 
351 C 1 78.352 68.574 18.49 
567 C 1 77.502 68.198 23.314 
272 C 1 67.766 74.536 21.974 
284 C 1 67.81 74.073 19.562 
285 C 1 67.885 73.614 20.902 
286 C 1 68.281 72.28 21.17 
294 C 1 67.885 73.614 17.151 
295 C 1 67.988 73.161 18.49 
296 C 1 68.469 71.855 18.758 
297 C 1 68.684 71.443 20.098 
307 C 1 68.12 72.716 16.079 
308 C 1 68.684 71.443 16.347 
511 C 1 67.81 74.073 23.314 
525 C 1 68.469 71.855 22.51 
298 C 1 69.48 70.302 20.366 
299 C 1 69.792 69.958 21.706 
300 C 1 70.852 69.055 21.974 
309 C 1 68.924 71.046 17.686 
310 C 1 69.792 69.958 17.954 
311 C 1 70.126 69.634 19.294 
312 C 1 71.242 68.802 19.562 
321 C 1 70.48 69.333 16.883 
526 C 1 69.19 70.665 22.778 
539 C 1 71.242 68.802 23.314 
5117 H 2 72.9289 72.5617 17.2528 
5115 O 3 73.1025 72.8787 16.3664 
5116 H 2 73.6651 73.6431 16.4908 
342 C 1 79.146 69.055 21.17 
352 C 1 79.518 69.333 18.758 
353 C 1 79.872 69.634 20.098 
354 C 1 80.808 70.665 20.366 
355 C 1 81.074 71.046 21.706 
363 C 1 78.756 68.802 16.079 
364 C 1 79.872 69.634 16.347 
365 C 1 80.206 69.958 17.686 
366 C 1 81.074 71.046 17.954 
577 C 1 79.518 69.333 22.51 
578 C 1 80.518 70.302 22.778 
5660 H 2 79.1787 74.4104 17.3963 
5658 O 3 78.8394 74.9043 16.6499 
356 C 1 81.717 72.28 21.974 
367 C 1 81.314 71.443 19.294 
368 C 1 81.878 72.716 19.562 
369 C 1 82.01 73.161 20.902 
370 C 1 82.232 74.536 21.17 
377 C 1 81.529 71.855 16.883 
378 C 1 82.01 73.161 17.151 
379 C 1 82.113 73.614 18.49 
387 C 1 82.188 74.073 16.079 
585 C 1 81.878 72.716 23.314 
258 C 1 68.684 78.557 21.17 
268 C 1 68.469 78.145 18.758 
269 C 1 68.281 77.72 20.098 
270 C 1 67.885 76.386 20.366 
271 C 1 67.81 75.927 21.706 
280 C 1 68.281 77.72 16.347 
281 C 1 68.12 77.284 17.686 
282 C 1 67.81 75.927 17.954 
283 C 1 67.766 75.464 19.294 
293 C 1 67.751 75 16.883 
497 C 1 68.469 78.145 22.51 
498 C 1 67.988 76.839 22.778 
243 C 1 71.242 81.198 21.706 
244 C 1 70.126 80.366 21.974 
254 C 1 71.242 81.198 17.954 
255 C 1 70.852 80.945 19.294 
256 C 1 69.792 80.042 19.562 
257 C 1 69.48 79.698 20.902 
265 C 1 70.48 80.667 16.883 
266 C 1 69.48 79.698 17.151 
267 C 1 69.19 79.335 18.49 
279 C 1 68.924 78.954 16.079 
483 C 1 69.792 80.042 23.314 
5707 H 2 72.4726 78.4459 16.2485 
5194 H 2 74.7679 77.8941 16.486 
5751 O 3 75.4527 75.0213 16.3235 
5659 H 2 77.9118 75.0324 16.8485 
5195 H 2 76.2613 78.1407 16.4581 
5193 O 3 75.5359 77.9538 17.054 
204 C 1 81.074 78.954 19.562 
205 C 1 80.808 79.335 20.902 
206 C 1 79.872 80.366 21.17 
210 C 1 80.808 79.335 17.151 
211 C 1 80.518 79.698 18.49 
212 C 1 79.518 80.667 18.758 
213 C 1 79.146 80.945 20.098 
223 C 1 80.206 80.042 16.079 
224 C 1 79.146 80.945 16.347 
225 C 1 78.756 81.198 17.686 
427 C 1 81.074 78.954 23.314 
441 C 1 79.518 80.667 22.51 
5753 H 2 75.6279 75.7997 16.8523 
197 C 1 82.232 75.464 20.098 
198 C 1 82.01 76.839 20.366 
199 C 1 81.878 77.284 21.706 
200 C 1 81.314 78.557 21.974 
201 C 1 82.188 75.927 17.686 
202 C 1 81.878 77.284 17.954 
203 C 1 81.717 77.72 19.294 
209 C 1 81.529 78.145 16.883 
380 C 1 82.247 75 18.758 
388 C 1 82.232 75.464 16.347 
413 C 1 82.247 75 22.51 
414 C 1 82.113 76.386 22.778 
230 C 1 73.842 82.155 21.17 
239 C 1 74.767 82.244 18.49 
240 C 1 73.386 82.066 18.758 
241 C 1 72.937 81.949 20.098 
242 C 1 71.646 81.426 20.366 
251 C 1 74.303 82.215 16.079 
252 C 1 72.937 81.949 16.347 
253 C 1 72.496 81.802 17.686 
469 C 1 73.386 82.066 22.51 
470 C 1 72.065 81.628 22.778 
214 C 1 77.933 81.628 20.366 
215 C 1 77.502 81.802 21.706 
216 C 1 76.156 82.155 21.974 
226 C 1 77.502 81.802 17.954 
227 C 1 77.061 81.949 19.294 
228 C 1 75.695 82.215 19.562 
229 C 1 75.231 82.244 20.902 
237 C 1 76.612 82.066 16.883 
238 C 1 75.231 82.244 17.151 
442 C 1 78.352 81.426 22.778 
455 C 1 75.695 82.215 23.314 
518 C 1 71.646 68.574 28.406 
519 C 1 72.065 68.372 29.745 
520 C 1 73.386 67.934 30.013 
530 C 1 72.065 68.372 25.994 
531 C 1 72.496 68.198 27.334 
532 C 1 73.842 67.845 27.602 
533 C 1 74.303 67.785 28.941 
540 C 1 72.496 68.198 23.582 
541 C 1 72.937 68.051 24.922 
542 C 1 74.303 67.785 25.19 
543 C 1 74.767 67.756 26.53 
534 C 1 75.695 67.785 29.209 
535 C 1 76.156 67.845 30.549 
536 C 1 77.502 68.198 30.817 
544 C 1 76.156 67.845 26.798 
545 C 1 76.612 67.934 28.138 
546 C 1 77.933 68.372 28.406 
547 C 1 78.352 68.574 29.745 
555 C 1 75.231 67.756 24.118 
556 C 1 76.612 67.934 24.386 
557 C 1 77.061 68.051 25.726 
558 C 1 78.352 68.574 25.994 
480 C 1 67.81 74.073 30.817 
490 C 1 67.885 73.614 28.406 
491 C 1 67.988 73.161 29.745 
492 C 1 68.469 71.855 30.013 
501 C 1 67.766 74.536 25.726 
502 C 1 67.988 73.161 25.994 
503 C 1 68.12 72.716 27.334 
504 C 1 68.684 71.443 27.602 
512 C 1 68.12 72.716 23.582 
513 C 1 68.281 72.28 24.922 
505 C 1 68.924 71.046 28.941 
506 C 1 69.792 69.958 29.209 
507 C 1 70.126 69.634 30.549 
508 C 1 71.242 68.802 30.817 
514 C 1 68.924 71.046 25.19 
515 C 1 69.19 70.665 26.53 
516 C 1 70.126 69.634 26.798 
517 C 1 70.48 69.333 28.138 
527 C 1 69.48 70.302 24.118 
528 C 1 70.48 69.333 24.386 
529 C 1 70.852 69.055 25.726 
548 C 1 79.518 69.333 30.013 
559 C 1 78.756 68.802 27.334 
560 C 1 79.872 69.634 27.602 
561 C 1 80.206 69.958 28.941 
562 C 1 81.074 71.046 29.209 
568 C 1 78.756 68.802 23.582 
569 C 1 79.146 69.055 24.922 
570 C 1 80.206 69.958 25.19 
571 C 1 80.518 70.302 26.53 
579 C 1 80.808 70.665 24.118 
563 C 1 81.314 71.443 30.549 
564 C 1 81.878 72.716 30.817 
572 C 1 81.314 71.443 26.798 
573 C 1 81.529 71.855 28.138 
574 C 1 82.01 73.161 28.406 
575 C 1 82.113 73.614 29.745 
580 C 1 81.529 71.855 24.386 
581 C 1 81.717 72.28 25.726 
582 C 1 82.113 73.614 25.994 
583 C 1 82.188 74.073 27.334 
586 C 1 82.188 74.073 23.582 
587 C 1 82.232 74.536 24.922 
464 C 1 68.469 78.145 30.013 
476 C 1 68.281 77.72 27.602 
477 C 1 68.12 77.284 28.941 
478 C 1 67.81 75.927 29.209 
479 C 1 67.766 75.464 30.549 
485 C 1 68.684 78.557 24.922 
486 C 1 68.12 77.284 25.19 
487 C 1 67.988 76.839 26.53 
488 C 1 67.766 75.464 26.798 
489 C 1 67.751 75 28.138 
499 C 1 67.885 76.386 24.118 
500 C 1 67.751 75 24.386 
450 C 1 71.242 81.198 29.209 
451 C 1 70.852 80.945 30.549 
452 C 1 69.792 80.042 30.817 
460 C 1 70.852 80.945 26.798 
461 C 1 70.48 80.667 28.138 
462 C 1 69.48 79.698 28.406 
463 C 1 69.19 79.335 29.745 
472 C 1 70.48 80.667 24.386 
473 C 1 70.126 80.366 25.726 
474 C 1 69.19 79.335 25.994 
475 C 1 68.924 78.954 27.334 
484 C 1 68.924 78.954 23.582 
400 C 1 81.074 78.954 30.817 
406 C 1 80.808 79.335 28.406 
407 C 1 80.518 79.698 29.745 
408 C 1 79.518 80.667 30.013 
418 C 1 80.518 79.698 25.994 
419 C 1 80.206 80.042 27.334 
420 C 1 79.146 80.945 27.602 
421 C 1 78.756 81.198 28.941 
428 C 1 80.206 80.042 23.582 
429 C 1 79.872 80.366 24.922 
430 C 1 78.756 81.198 25.19 
576 C 1 82.247 75 30.013 
584 C 1 82.232 75.464 27.602 
588 C 1 82.188 75.927 25.19 
397 C 1 82.188 75.927 28.941 
398 C 1 81.878 77.284 29.209 
399 C 1 81.717 77.72 30.549 
403 C 1 82.113 76.386 26.53 
404 C 1 81.717 77.72 26.798 
405 C 1 81.529 78.145 28.138 
415 C 1 82.01 76.839 24.118 
416 C 1 81.529 78.145 24.386 
417 C 1 81.314 78.557 25.726 
436 C 1 73.386 82.066 30.013 
457 C 1 73.842 82.155 24.922 
458 C 1 72.496 81.802 25.19 
446 C 1 74.767 82.244 25.994 
459 C 1 72.065 81.628 26.53 
448 C 1 72.937 81.949 27.602 
471 C 1 71.646 81.426 24.118 
447 C 1 74.303 82.215 27.334 
435 C 1 74.767 82.244 29.745 
449 C 1 72.496 81.802 28.941 
456 C 1 74.303 82.215 23.582 
443 C 1 77.933 81.628 24.118 
444 C 1 76.612 82.066 24.386 
434 C 1 75.231 82.244 28.406 
432 C 1 77.061 81.949 26.798 
445 C 1 76.156 82.155 25.726 
424 C 1 75.695 82.215 30.817 
431 C 1 78.352 81.426 26.53 
423 C 1 77.061 81.949 30.549 
433 C 1 76.612 82.066 28.138 
422 C 1 77.502 81.802 29.209 
509 C 1 71.646 68.574 32.157 
510 C 1 72.937 68.051 32.425 
521 C 1 73.842 67.845 31.353 
726 C 1 72.065 68.372 37.249 
727 C 1 72.496 68.198 38.589 
728 C 1 73.842 67.845 38.857 
736 C 1 72.496 68.198 34.837 
737 C 1 72.937 68.051 36.177 
738 C 1 74.303 67.785 36.445 
739 C 1 74.767 67.756 37.785 
749 C 1 73.386 67.934 33.765 
750 C 1 74.767 67.756 34.033 
522 C 1 75.231 67.756 31.621 
523 C 1 75.695 67.785 32.961 
524 C 1 77.061 68.051 33.229 
537 C 1 77.933 68.372 32.157 
740 C 1 76.156 67.845 38.053 
751 C 1 75.231 67.756 35.373 
752 C 1 76.612 67.934 35.641 
753 C 1 77.061 68.051 36.981 
754 C 1 78.352 68.574 37.249 
763 C 1 77.502 68.198 34.569 
468 C 1 67.766 74.536 33.229 
481 C 1 67.885 73.614 32.157 
482 C 1 68.281 72.28 32.425 
493 C 1 68.684 71.443 31.353 
697 C 1 67.766 74.536 36.981 
698 C 1 67.988 73.161 37.249 
699 C 1 68.12 72.716 38.589 
700 C 1 68.684 71.443 38.857 
707 C 1 67.81 74.073 34.569 
708 C 1 68.12 72.716 34.837 
709 C 1 68.281 72.28 36.177 
721 C 1 68.469 71.855 33.765 
494 C 1 69.48 70.302 31.621 
495 C 1 69.792 69.958 32.961 
496 C 1 70.852 69.055 33.229 
710 C 1 68.924 71.046 36.445 
711 C 1 69.19 70.665 37.785 
712 C 1 70.126 69.634 38.053 
722 C 1 69.19 70.665 34.033 
723 C 1 69.48 70.302 35.373 
724 C 1 70.48 69.333 35.641 
725 C 1 70.852 69.055 36.981 
735 C 1 71.242 68.802 34.569 
538 C 1 79.146 69.055 32.425 
549 C 1 79.872 69.634 31.353 
550 C 1 80.808 70.665 31.621 
551 C 1 81.074 71.046 32.961 
755 C 1 78.756 68.802 38.589 
756 C 1 79.872 69.634 38.857 
764 C 1 78.756 68.802 34.837 
765 C 1 79.146 69.055 36.177 
766 C 1 80.206 69.958 36.445 
767 C 1 80.518 70.302 37.785 
773 C 1 79.518 69.333 33.765 
774 C 1 80.518 70.302 34.033 
775 C 1 80.808 70.665 35.373 
552 C 1 81.717 72.28 33.229 
565 C 1 82.01 73.161 32.157 
566 C 1 82.232 74.536 32.425 
768 C 1 81.314 71.443 38.053 
776 C 1 81.529 71.855 35.641 
777 C 1 81.717 72.28 36.981 
778 C 1 82.113 73.614 37.249 
779 C 1 82.188 74.073 38.589 
781 C 1 81.878 72.716 34.569 
782 C 1 82.188 74.073 34.837 
783 C 1 82.232 74.536 36.177 
454 C 1 68.684 78.557 32.425 
465 C 1 68.281 77.72 31.353 
466 C 1 67.885 76.386 31.621 
467 C 1 67.81 75.927 32.961 
672 C 1 68.281 77.72 38.857 
681 C 1 68.684 78.557 36.177 
682 C 1 68.12 77.284 36.445 
683 C 1 67.988 76.839 37.785 
684 C 1 67.766 75.464 38.053 
693 C 1 68.469 78.145 33.765 
694 C 1 67.988 76.839 34.033 
695 C 1 67.885 76.386 35.373 
696 C 1 67.751 75 35.641 
439 C 1 71.242 81.198 32.961 
440 C 1 70.126 80.366 33.229 
453 C 1 69.48 79.698 32.157 
656 C 1 70.852 80.945 38.053 
668 C 1 70.48 80.667 35.641 
669 C 1 70.126 80.366 36.981 
670 C 1 69.19 79.335 37.249 
671 C 1 68.924 78.954 38.589 
679 C 1 69.792 80.042 34.569 
680 C 1 68.924 78.954 34.837 
401 C 1 80.808 79.335 32.157 
402 C 1 79.872 80.366 32.425 
409 C 1 79.146 80.945 31.353 
614 C 1 80.518 79.698 37.249 
615 C 1 80.206 80.042 38.589 
616 C 1 79.146 80.945 38.857 
623 C 1 81.074 78.954 34.569 
624 C 1 80.206 80.042 34.837 
625 C 1 79.872 80.366 36.177 
626 C 1 78.756 81.198 36.445 
637 C 1 79.518 80.667 33.765 
393 C 1 82.232 75.464 31.353 
394 C 1 82.01 76.839 31.621 
395 C 1 81.878 77.284 32.961 
396 C 1 81.314 78.557 33.229 
599 C 1 82.113 76.386 37.785 
600 C 1 81.717 77.72 38.053 
609 C 1 82.247 75 33.765 
610 C 1 82.113 76.386 34.033 
611 C 1 82.01 76.839 35.373 
612 C 1 81.529 78.145 35.641 
613 C 1 81.314 78.557 36.981 
780 C 1 82.232 75.464 38.857 
784 C 1 82.188 75.927 36.445 
426 C 1 73.842 82.155 32.425 
437 C 1 72.937 81.949 31.353 
438 C 1 71.646 81.426 31.621 
642 C 1 74.767 82.244 37.249 
643 C 1 74.303 82.215 38.589 
644 C 1 72.937 81.949 38.857 
652 C 1 74.303 82.215 34.837 
653 C 1 73.842 82.155 36.177 
654 C 1 72.496 81.802 36.445 
655 C 1 72.065 81.628 37.785 
665 C 1 73.386 82.066 33.765 
666 C 1 72.065 81.628 34.033 
667 C 1 71.646 81.426 35.373 
410 C 1 77.933 81.628 31.621 
411 C 1 77.502 81.802 32.961 
412 C 1 76.156 82.155 33.229 
425 C 1 75.231 82.244 32.157 
627 C 1 78.352 81.426 37.785 
628 C 1 77.061 81.949 38.053 
638 C 1 78.352 81.426 34.033 
639 C 1 77.933 81.628 35.373 
640 C 1 76.612 82.066 35.641 
641 C 1 76.156 82.155 36.981 
651 C 1 75.695 82.215 34.569 
705 C 1 71.646 68.574 43.412 
706 C 1 72.937 68.051 43.68 
714 C 1 71.646 68.574 39.661 
715 C 1 72.065 68.372 41 
716 C 1 73.386 67.934 41.268 
717 C 1 73.842 67.845 42.608 
729 C 1 74.303 67.785 40.197 
932 C 1 72.496 68.198 46.092 
945 C 1 73.386 67.934 45.02 