ITEM: TIMESTEP
2337856
ITEM: NUMBER OF ATOMS
5723
ITEM: BOX BOUNDS pp pp pp
0.0000000000000000e+00 1.5000000000000000e+02
0.0000000000000000e+00 1.5000000000000000e+02
0.0000000000000000e+00 2.5000000000000000e+02
ITEM: ATOMS id element type x y z 
135 C 1 67.9652 68.44 1.90598 
127 C 1 71.8615 67.4639 6.76448 
128 C 1 74.2711 67.0862 7.10084 
139 C 1 72.1798 66.3909 4.36983 
140 C 1 74.389 68.1182 5.08237 
141 C 1 74.3065 66.0866 6.03924 
149 C 1 72.8476 66.6241 2.02322 
4438 C 1 71.028 66.7158 3.7632 
4440 C 1 73.2987 66.1358 5.06929 
4441 C 1 73.6594 68.3203 6.93325 
4450 C 1 72.0655 67.0543 1.04267 
4452 C 1 73.8978 66.4653 2.86166 
4453 C 1 73.4372 68.4878 4.25731 
125 C 1 69.9896 67.9772 4.97049 
137 C 1 69.8854 67.1009 3.17584 
4428 C 1 70.8436 68.2286 6.07273 
4436 C 1 68.812 67.6246 2.56383 
147 C 1 70.9614 68.0755 0.24887 
4462 C 1 74.6277 65.9687 0.873836 
4426 C 1 68.9982 68.6111 4.29188 
161 C 1 73.4303 65.4387 0.521605 
151 C 1 75.0482 66.4669 3.57141 
142 C 1 76.5678 68.0539 6.63057 
153 C 1 77.4145 66.8878 4.82807 
155 C 1 78.9811 68.0316 6.70621 
163 C 1 75.4731 65.4672 1.89249 
165 C 1 77.8101 65.8977 3.11405 
4442 C 1 75.4352 65.2369 6.40893 
4454 C 1 76.2471 66.5901 4.18374 
4455 C 1 75.4367 68.1438 5.87024 
4456 C 1 77.7818 67.6271 5.99033 
4464 C 1 76.6529 65.524 2.54267 
4466 C 1 78.9407 66.4033 3.63221 
4477 C 1 76.3207 67.6817 0.862242 
4478 C 1 79.1633 67.594 0.972459 
167 C 1 80.0115 67.0014 4.17537 
177 C 1 79.9958 67.8562 1.96623 
4468 C 1 81.0146 67.6773 4.75691 
4480 C 1 80.7985 68.4834 2.85244 
162 C 1 75.2326 67.05 0.159162 
175 C 1 77.6698 67.4931 0.166048 
143 C 1 76.0105 65.6294 7.7045 
164 C 1 76.2933 68.6374 1.83957 
169 C 1 81.8283 68.4786 5.47248 
185 C 1 82.883 67.6398 0.583199 
99 C 1 66.6859 73.0452 6.86801 
100 C 1 68.5729 71.4769 7.3561 
108 C 1 68.3881 74.8624 1.60495 
109 C 1 65.3789 74.4153 3.50071 
111 C 1 66.1655 72.0259 4.44883 
121 C 1 66.9646 71.2568 2.05394 
4400 C 1 67.1243 74.162 6.09214 
4410 C 1 65.7173 73.2145 4.00759 
4412 C 1 66.673 70.8648 4.89775 
4422 C 1 66.8685 72.1663 1.03088 
4424 C 1 67.4763 70.3326 2.89375 
113 C 1 67.2578 69.7848 5.44747 
123 C 1 68.1722 69.4406 3.62504 
4414 C 1 67.963 68.9544 6.25327 
86 C 1 68.3596 74.6784 6.61647 
96 C 1 68.5538 74.7754 4.18665 
4434 C 1 67.8108 69.4116 0.891698 
119 C 1 66.8393 73.5272 0.164404 
97 C 1 66.5777 74.9489 5.05847 
115 C 1 68.7 68.9245 7.44862 
4402 C 1 67.2947 72.1496 7.75316 
133 C 1 66.6219 69.95 0.518692 
138 C 1 72.7063 69.2628 3.49144 
150 C 1 74.5381 69.157 2.64071 
4411 C 1 69.2191 73.9434 4.96706 
126 C 1 72.9106 69.1928 6.26025 
148 C 1 73.5735 68.9133 0.223948 
4439 C 1 72.0506 69.6535 5.35884 
4451 C 1 71.9328 69.9638 2.68979 
4463 C 1 74.0684 69.2424 1.40586 
98 C 1 69.7824 73.1308 5.84911 
110 C 1 69.5076 73.0235 3.01229 
112 C 1 69.4243 71.3189 5.02451 
120 C 1 69.2262 71.8533 0.26747 
4413 C 1 69.5874 72.2174 6.80189 
4423 C 1 69.1987 73.9499 2.11794 
114 C 1 70.5385 69.5142 6.66038 
122 C 1 69.4213 70.7355 2.66059 
124 C 1 71.0664 69.8247 4.48775 
136 C 1 71.0326 70.0224 1.72099 
4425 C 1 69.4414 72.1892 4.03314 
4427 C 1 69.8184 70.4351 5.9264 
4435 C 1 69.4395 71.3252 1.4691 
4437 C 1 70.1272 70.1083 3.59797 
4449 C 1 70.2357 69.2746 0.890689 
134 C 1 69.0353 69.6917 0.21586 
5007 O 3 72.3464 73.068 3.3249 
5518 H 2 72.967 74.6009 7.41085 
5009 H 2 72.8359 73.2642 4.12373 
4614 O 3 73.8678 73.5251 6.03756 
5008 H 2 71.5105 72.7199 3.63509 
4615 H 2 74.4327 74.274 6.22794 
4616 H 2 74.1231 72.8626 6.6795 
5593 H 2 73.5987 74.5231 2.63031 
4937 H 2 72.7731 73.8413 0.379781 
4935 O 3 72.1267 74.4363 0.759607 
5043 O 3 74.805 71.6073 7.44063 
4936 H 2 71.9188 74.0527 1.61157 
5065 H 2 76.1202 72.9962 5.12597 
5064 O 3 77.0658 73.1442 5.11444 
5066 H 2 77.2919 73.1793 4.18499 
4465 C 1 75.4212 69.0075 3.61442 
152 C 1 76.4319 69.141 4.45271 
154 C 1 78.2643 69.8324 6.21608 
166 C 1 78.2319 69.5857 3.25523 
4467 C 1 77.3263 69.4702 5.36232 
156 C 1 80.767 70.1181 7.00566 
168 C 1 79.7519 70.7203 4.96749 
176 C 1 78.9824 69.9413 0.00278468 
178 C 1 79.7223 71.0229 2.24603 
4469 C 1 79.4223 70.0404 6.81941 
4479 C 1 77.1228 69.3483 2.58798 
4481 C 1 79.2084 69.9352 4.06374 
4491 C 1 79.2416 70.667 1.07089 
182 C 1 80.7208 74.3787 5.93574 
188 C 1 81.0784 72.3164 1.54975 
4483 C 1 80.1497 71.6229 5.83961 
4493 C 1 80.3759 71.5554 3.26027 
4503 C 1 80.9151 73.5623 1.97786 
170 C 1 81.0933 72.1938 6.64395 
180 C 1 80.7985 72.4463 4.13766 
4495 C 1 80.7681 73.4118 5.03627 
190 C 1 81.1949 74.5348 2.83625 
5390 H 2 77.3432 74.8281 5.80292 
5675 H 2 76.3495 70.9784 0.0999376 
5673 O 3 76.0398 71.8485 0.351357 
5704 H 2 76.3865 73.4378 1.85769 
5703 O 3 76.5189 74.2394 2.36367 
5705 H 2 76.8185 74.8822 1.7208 
4501 C 1 81.5668 71.0599 1.44826 
179 C 1 81.5296 69.2753 3.66259 
187 C 1 82.5387 69.9987 1.94683 
4470 C 1 82.0442 69.4375 6.46801 
4482 C 1 82.1779 70.1623 4.44384 
181 C 1 82.6842 71.1521 5.21854 
183 C 1 83.2333 72.8662 7.18416 
189 C 1 84.0411 71.3309 3.64929 
191 C 1 84.4975 73.8049 4.50077 
195 C 1 83.7225 74.7295 2.03074 
4484 C 1 82.4782 72.1117 6.23416 
4492 C 1 83.457 70.3705 2.92208 
4494 C 1 84.3534 72.5315 4.13877 
4502 C 1 83.2771 73.8618 1.0711 
193 C 1 82.7101 72.6142 0.216178 
171 C 1 83.0749 69.9224 7.5754 
4490 C 1 82.5354 68.9125 0.876212 
186 C 1 81.8111 70.155 0.102042 
4409 C 1 68.3875 75.8024 3.37056 
4421 C 1 67.3474 75.6989 1.41877 
72 C 1 67.8998 77.8882 7.50148 
85 C 1 66.2684 77.6631 5.41756 
93 C 1 67.6311 79.3838 2.24624 
95 C 1 66.8528 77.1727 3.56937 
107 C 1 66.0482 76.3893 1.91418 
4384 C 1 66.8444 78.7558 4.88023 
4386 C 1 65.9499 76.5844 6.18056 
4396 C 1 67.1919 78.3012 2.9187 
4398 C 1 66.6239 76.0547 4.28339 
4408 C 1 65.334 75.5929 2.8277 
71 C 1 68.2411 80.4357 6.91936 
83 C 1 67.5271 79.8161 4.41072 
4382 C 1 68.2596 80.8304 3.91493 
4394 C 1 68.1708 80.3033 1.39991 
87 C 1 66.2761 76.0628 7.45544 
4406 C 1 66.1099 77.4717 0.700768 
106 C 1 66.6549 76.0904 0.0398927 
105 C 1 66.6383 78.6072 0.176355 
91 C 1 68.6759 80.424 0.0335659 
5519 H 2 72.44 75.6789 6.48774 
5592 O 3 73.9871 75.3911 2.73995 
5517 O 3 72.2988 75.2834 7.3479 
94 C 1 68.7927 76.6378 2.43119 
84 C 1 69.2345 76.6088 4.99316 
4399 C 1 68.9778 75.6912 5.9126 
4385 C 1 69.0082 77.4962 6.77214 
4397 C 1 69.5394 77.5065 4.06989 
4407 C 1 69.1892 77.2915 1.35689 
58 C 1 71.5645 79.4843 7.25433 
68 C 1 70.578 79.6658 4.21796 
70 C 1 70.0879 77.9888 6.15993 
80 C 1 70.1978 80.181 1.30129 
82 C 1 69.8267 78.2482 3.01064 
92 C 1 69.052 78.0133 0.263869 
4371 C 1 72.3111 80.0137 6.29565 
4381 C 1 70.8775 80.4064 3.16852 
4383 C 1 70.5258 78.8335 5.23872 
4395 C 1 70.0452 79.0402 1.96923 
56 C 1 72.799 80.7625 5.32324 
66 C 1 71.7009 81.0093 2.32792 
4372 C 1 68.9105 81.1527 6.01393 
5430 O 3 73.3828 76.7181 5.13831 
5432 H 2 72.8951 77.5039 4.89146 
5594 H 2 74.9303 75.2302 2.76798 
5431 H 2 73.7914 76.4236 4.32433 
5623 H 2 74.4445 76.6744 6.87141 
4928 H 2 74.3164 77.9896 0.430746 
5388 O 3 77.4344 75.6219 6.32992 
5389 H 2 76.5377 75.8538 6.57165 
5622 O 3 75.0161 76.0203 7.27342 
14 C 1 80.2017 79.2046 6.15333 
26 C 1 79.8711 79.6227 3.82078 
28 C 1 78.2425 81.0538 5.19771 
36 C 1 79.066 80.8112 0.277654 
38 C 1 78.0556 80.5295 2.53339 
4327 C 1 80.573 78.9223 4.84152 
4329 C 1 79.5965 80.1907 6.82631 
4339 C 1 79.9648 79.1294 2.52266 
4341 C 1 79.0865 80.6846 4.23927 
24 C 1 80.8007 78.452 1.72329 
4313 C 1 81.2088 75.233 6.83177 
4323 C 1 81.061 75.9707 1.15158 
30 C 1 76.7438 80.8009 7.35702 
4343 C 1 77.4828 80.8649 6.26212 
4351 C 1 79.0755 80.8388 1.67064 
4353 C 1 77.2119 80.5711 3.55369 
37 C 1 80.3573 81.1411 2.2685 
4355 C 1 75.6895 81.1699 5.30489 
40 C 1 76.0104 81.1242 3.9642 
5365 H 2 76.4302 77.4059 4.45925 
5364 O 3 77.2545 77.4509 3.9747 
5366 H 2 77.6943 76.624 4.17218 
4838 H 2 78.0395 76.6827 0.282822 
4836 O 3 77.2906 76.6438 0.87765 
4837 H 2 77.5546 77.1722 1.63081 
4927 H 2 75.7549 77.6093 0.15182 
194 C 1 81.2836 75.1894 0.107314 
4496 C 1 84.5342 75.082 4.87673 
196 C 1 81.3851 76.5077 2.31555 
184 C 1 82.3923 75.5733 7.47507 
15 C 1 81.884 80.1377 7.21029 
4320 C 1 82.3097 79.1455 6.28341 
4326 C 1 82.3357 80.6459 3.98321 
4338 C 1 81.4167 80.4043 1.59918 
5 C 1 84.4497 76.298 5.4183 
6 C 1 81.7608 77.8782 6.69581 
11 C 1 83.7945 76.9223 3.58007 
12 C 1 81.5047 77.988 4.42219 
13 C 1 83.1607 78.9944 5.16668 
23 C 1 84.3926 77.9627 1.98058 
25 C 1 82.89 79.6412 3.29446 
192 C 1 82.0149 75.8715 4.9621 
4314 C 1 84.1718 77.3006 6.26161 
4317 C 1 81.6613 75.1823 3.89068 
4318 C 1 83.5974 78.045 4.29838 
4319 C 1 82.0658 76.7865 5.91721 
4324 C 1 83.1738 78.6158 2.39531 
4325 C 1 81.7299 77.1273 3.43215 
4337 C 1 82.1319 78.1773 1.507 
4504 C 1 83.8472 75.7957 2.8455 
4508 C 1 84.2154 77.1782 0.781179 
35 C 1 81.293 79.776 0.310305 
22 C 1 82.7962 77.4426 0.291221 
7 C 1 83.6027 77.7522 7.46295 
21 C 1 85.0738 76.2798 0.196673 
4393 C 1 70.1754 81.5664 1.16708 
69 C 1 69.7381 81.7831 5.1629 
81 C 1 69.0244 81.7519 3.29504 
4370 C 1 70.6597 82.3677 4.37755 
4380 C 1 69.8365 82.3745 2.33437 
43 C 1 74.5427 83.4444 6.71046 
44 C 1 72.592 82.3648 6.88369 
54 C 1 73.8208 81.6621 3.03185 
55 C 1 73.9826 84.1418 4.44704 
57 C 1 71.9481 83.1911 5.90187 
64 C 1 73.0544 82.1255 0.686515 
65 C 1 73.9429 83.6326 2.4334 
67 C 1 71.6655 82.8999 3.66083 
79 C 1 70.5534 83.6262 2.09022 
4356 C 1 72.8021 83.8418 5.00872 
4357 C 1 73.741 81.6194 6.86571 
4358 C 1 70.5389 83.2277 6.28985 
4366 C 1 74.9873 83.6232 1.55435 
4368 C 1 72.7746 83.3659 3.05512 
4369 C 1 73.3078 81.4301 4.30348 
4379 C 1 72.8729 81.6542 1.98099 
42 C 1 74.9254 81.2533 6.3876 
4378 C 1 71.246 83.6198 0.791509 
59 C 1 70.2856 82.5151 7.54525 
78 C 1 70.913 82.3452 0.169016 
77 C 1 72.0014 84.6117 0.272116 
16 C 1 79.2821 81.52 6.97077 
29 C 1 79.5941 82.5817 6.05457 
4328 C 1 80.6888 82.3415 5.22111 
4340 C 1 80.1592 82.0929 3.31031 
4367 C 1 75.2033 81.5736 2.88881 
39 C 1 79.1325 82.6706 4.00982 
41 C 1 76.7483 83.2529 5.15607 
51 C 1 78.6279 84.1954 1.94313 
52 C 1 75.8955 81.8492 1.71007 
53 C 1 76.4033 84.0971 3.32922 
4330 C 1 78.7223 83.6978 6.41368 
4342 C 1 77.9562 83.0149 4.58982 
4344 C 1 75.5666 83.4144 5.80231 
4352 C 1 77.3325 83.7196 2.36085 
4354 C 1 75.2216 84.2129 3.94908 
4365 C 1 76.9279 82.7159 1.41441 
63 C 1 75.2063 83.0607 0.279352 
31 C 1 77.9401 83.4372 7.61986 
50 C 1 77.893 82.7567 0.184894 
4350 C 1 79.0488 83.6115 0.689924 
49 C 1 80.2758 83.6972 0.0789317 
27 C 1 81.6055 81.5863 4.59434 
4430 C 1 72.2647 67.5802 8.15987 
117 C 1 71.2968 68.4123 10.2166 
118 C 1 72.6129 67.9707 10.4487 
129 C 1 73.2868 67.5743 9.25431 
334 C 1 71.9573 68.5036 15.1207 
344 C 1 72.3473 68.3564 12.7557 
345 C 1 72.8198 68.1746 14.062 
346 C 1 74.1707 67.8179 14.2823 
357 C 1 73.1969 67.9856 11.7001 
358 C 1 74.5773 67.7324 11.8648 
130 C 1 74.7442 67.3265 9.41806 
116 C 1 70.9984 68.2653 8.79098 
4416 C 1 69.5939 68.038 7.98455 
347 C 1 74.6571 67.7478 15.609 
4457 C 1 76.5722 68.1682 8.00815 
4458 C 1 79.0471 68.5251 8.06941 
131 C 1 75.449 67.64 10.7069 
132 C 1 76.849 67.9866 11.0404 
144 C 1 77.7468 68.2441 8.7247 
145 C 1 77.8424 68.3084 10.1048 
359 C 1 75.0801 67.7431 13.1953 
360 C 1 76.4575 67.8984 13.4706 
361 C 1 76.9475 68.0009 14.7966 
362 C 1 78.2428 68.5094 15.078 
371 C 1 77.322 68.1754 12.3921 
4443 C 1 75.1867 66.7341 8.18553 
4444 C 1 77.053 65.0433 8.33058 
4401 C 1 68.5247 74.3058 7.96815 
76 C 1 67.4725 74.7877 11.0862 
88 C 1 67.3177 74.1853 8.72195 
89 C 1 67.4333 73.7679 10.0831 
90 C 1 67.7712 72.4153 10.3462 
101 C 1 67.8495 71.4368 9.20444 
305 C 1 67.6739 74.6925 14.8333 
306 C 1 67.8763 73.3186 15.1013 
315 C 1 67.654 74.2848 12.4195 
316 C 1 67.9736 72.9168 12.6928 
317 C 1 68.1709 72.4573 14.0234 
329 C 1 68.226 72.0075 11.6241 
4388 C 1 66.189 74.7868 8.07871 
4415 C 1 68.6118 70.1902 8.17002 
5458 H 2 73.412 72.3704 10.7607 
343 C 1 71.0941 68.9726 12.4865 
4429 C 1 70.7817 69.6433 8.03413 
102 C 1 68.9378 70.2481 9.70015 
103 C 1 69.504 70.0078 10.8981 
104 C 1 70.5825 69.109 11.174 
318 C 1 68.8186 71.2328 14.3167 
330 C 1 69.0072 70.8372 11.9376 
331 C 1 69.3736 70.4991 13.2563 
332 C 1 70.3689 69.539 13.5435 
333 C 1 70.7635 69.217 14.8544 
4850 H 2 71.6982 74.1634 9.25802 
4848 O 3 71.8946 73.651 10.0422 
4849 H 2 71.1414 73.7917 10.6159 
5457 O 3 74.0554 71.7835 11.1578 
5459 H 2 73.6811 71.558 12.0095 
5045 H 2 74.0912 71.4014 8.04422 
5265 O 3 72.6057 72.0528 13.4592 
5267 H 2 72.1035 72.8296 13.7054 
5266 H 2 71.9689 71.3384 13.4815 
4819 H 2 71.0695 74.5718 13.4128 
4818 O 3 71.0434 74.1365 14.2649 
4820 H 2 71.7204 74.5759 14.7796 
5513 H 2 73.1568 71.7294 15.4999 
5044 H 2 75.5219 71.8949 8.00594 
4934 H 2 75.5033 73.9052 13.4601 
5125 H 2 77.1541 74.1651 10.6273 
5435 H 2 77.0767 72.311 9.74864 
5434 H 2 77.6422 72.7106 8.4024 
5433 O 3 76.8394 72.7335 8.92319 
4485 C 1 80.9777 72.6428 7.97336 
146 C 1 79.098 68.8963 10.4011 
157 C 1 79.8449 69.2093 9.20712 
372 C 1 78.5992 68.7701 12.6982 
373 C 1 79.0301 69.0035 14.0205 
374 C 1 80.138 69.861 14.2625 
381 C 1 79.4471 69.2556 11.6816 
382 C 1 80.5105 70.1723 11.8612 
383 C 1 80.7826 70.5467 13.1982 
158 C 1 80.9631 70.1402 9.42855 
159 C 1 81.1553 70.8107 10.7264 
375 C 1 80.4771 70.2015 15.5952 
5221 H 2 77.5414 70.9186 11.8901 
5222 H 2 76.338 71.6746 11.3683 
5220 O 3 77.2742 71.5445 11.217 
4932 O 3 76.3766 74.0956 13.8025 
4933 H 2 76.9288 74.1692 13.0241 
5124 O 3 77.0739 74.9665 11.1446 
4592 H 2 76.9154 72.7655 15.5037 
4471 C 1 81.6932 70.3369 8.20999 
4486 C 1 83.1378 74.3339 8.04089 
160 C 1 81.7957 72.1036 11.0224 
172 C 1 82.3598 72.9674 8.63973 
173 C 1 82.2846 73.0384 10.0971 
174 C 1 82.5227 74.3801 10.4598 
384 C 1 81.4963 71.7318 13.4681 
385 C 1 81.6802 72.1772 14.8001 
386 C 1 82.0479 73.514 15.0925 
389 C 1 81.8302 72.5852 12.3907 
390 C 1 82.0875 73.9569 12.7235 
391 C 1 82.1282 74.4413 14.0415 
4472 C 1 84.3695 69.9099 7.87931 
217 C 1 82.2721 74.9108 11.7103 
304 C 1 67.6591 75.1859 13.5086 
4374 C 1 67.9882 79.3346 8.07778 
62 C 1 68.4522 78.997 10.493 
73 C 1 67.7701 78.4081 9.42606 
74 C 1 67.3408 76.9757 9.6328 
75 C 1 67.4973 76.2333 10.8343 
290 C 1 68.1527 77.4298 14.3284 
301 C 1 68.4174 78.3721 11.7356 
302 C 1 67.8911 77.0634 11.9421 
303 C 1 67.8477 76.561 13.2583 
4387 C 1 67.0886 76.9585 8.19128 
5624 H 2 74.828 76.0803 8.21003 
5650 H 2 71.2364 76.1877 8.62269 
5649 O 3 70.7598 76.7389 9.2434 
5699 H 2 70.8167 76.1703 11.1861 
5651 H 2 70.4382 77.4706 8.71675 
5697 O 3 71.2038 75.9153 12.0236 
4373 C 1 70.5266 79.493 8.06899 
289 C 1 68.7737 78.6755 14.0835 
48 C 1 70.1327 80.6273 11.1015 
60 C 1 69.2834 80.23 8.61008 
61 C 1 69.2793 80.0826 10.1292 
276 C 1 70.5582 80.808 13.5257 
277 C 1 70.1879 80.4932 14.8534 
278 C 1 69.268 79.4572 15.1388 
287 C 1 69.8707 80.2013 12.451 
288 C 1 69.0177 79.1052 12.7708 
5698 H 2 71.9266 76.5298 12.1509 
4649 H 2 72.4362 77.9671 13.7066 
5619 O 3 74.7465 76.355 10.1664 
5621 H 2 73.9454 75.8475 10.2967 
4647 O 3 72.9258 77.6299 12.9564 
4648 H 2 73.7571 77.3326 13.3263 
5615 H 2 78.0613 75.6273 8.10724 
5614 H 2 78.5468 76.9629 8.62929 
5613 O 3 78.2305 76.1069 8.91819 
5126 H 2 77.2699 75.6713 10.5273 
5542 H 2 75.7424 75.9253 13.9297 
5541 O 3 75.7058 76.8816 13.9102 
5620 H 2 75.436 75.8205 10.5603 
5543 H 2 76.171 77.1233 13.1093 
234 C 1 78.7751 81.1389 14.3105 
4321 C 1 81.1448 77.9817 7.96418 
4322 C 1 80.8475 80.9118 8.20379 
9 C 1 80.9581 79.4142 10.0846 
10 C 1 80.0597 80.4569 10.3611 
222 C 1 80.5419 79.6438 15.083 
231 C 1 81.0793 78.8622 12.3966 
232 C 1 80.1902 79.9439 12.6865 
233 C 1 79.8681 80.2864 14.0213 
245 C 1 79.5329 80.642 11.6371 
5224 H 2 76.805 77.9473 14.9118 
5225 H 2 77.9611 78.715 15.5169 
8 C 1 81.3091 79.3845 8.64073 
4316 C 1 83.8555 78.9751 7.99837 
4315 C 1 82.7574 76.8089 8.10699 
392 C 1 82.1294 75.8369 14.287 
221 C 1 81.3313 78.5013 14.8094 
220 C 1 81.5294 78.0717 13.4787 
219 C 1 81.9894 76.7638 13.2279 
218 C 1 82.1488 76.3127 11.9035 
4 C 1 81.4135 78.5038 11.047 
3 C 1 82.0786 77.2354 10.7982 
2 C 1 82.5421 76.698 9.5724 
1 C 1 82.8474 75.2296 9.39187 
207 C 1 82.0994 76.3167 15.6139 
274 C 1 72.1235 81.808 11.9393 
45 C 1 73.0946 82.7249 9.00562 
46 C 1 71.7368 81.9269 9.66677 
4359 C 1 71.6856 82.324 8.1273 
47 C 1 71.2879 81.4488 10.8483 
275 C 1 71.7123 81.5725 13.2627 
261 C 1 73.8947 82.3002 14.0576 
4346 C 1 74.2979 83.1487 8.02248 
260 C 1 74.358 82.3841 12.7253 
34 C 1 73.9 82.6629 10.3787 
250 C 1 74.823 82.3579 15.1212 
273 C 1 73.4182 82.337 11.6528 
4360 C 1 69.3334 81.6923 8.0524 
262 C 1 72.551 81.9555 14.3286 
33 C 1 75.2891 82.7459 10.1857 
32 C 1 75.6238 82.8221 8.73307 
17 C 1 79.6887 81.35 9.12563 
249 C 1 76.2054 82.213 14.8607 
259 C 1 75.7561 82.3393 12.4765 
4332 C 1 76.7645 83.7733 8.21497 
4331 C 1 78.5381 82.1527 8.16332 
18 C 1 78.1935 81.9207 9.69684 
19 C 1 77.572 81.934 10.8878 
20 C 1 76.2392 82.3886 11.1454 
4345 C 1 76.0503 81.4032 8.30687 
248 C 1 76.6574 82.0993 13.5327 
246 C 1 78.3607 81.3979 11.9402 
247 C 1 77.9443 81.5882 13.2667 
313 C 1 71.5712 68.5688 21.1965 
314 C 1 72.8624 68.0359 21.4542 
322 C 1 71.5434 68.6343 17.4933 
323 C 1 71.9779 68.3931 18.8131 
324 C 1 73.297 67.9302 19.0665 
325 C 1 73.7731 67.8245 20.3926 
335 C 1 72.3984 68.2645 16.4349 
336 C 1 73.736 67.8582 16.6781 
337 C 1 74.2174 67.7697 18.0039 
553 C 1 73.3303 67.9058 22.781 
554 C 1 74.7139 67.721 23.0417 
326 C 1 75.1653 67.7187 20.6527 
327 C 1 75.649 67.7454 21.9802 
328 C 1 77.0209 68.0003 22.2428 
338 C 1 75.6133 67.7394 18.2632 
339 C 1 76.0968 67.7953 19.5903 
340 C 1 77.4507 68.1333 19.8541 
341 C 1 77.9014 68.3139 21.181 
349 C 1 76.5347 67.8726 17.1972 
350 C 1 77.8644 68.2941 17.4654 
351 C 1 78.3087 68.5 18.791 
348 C 1 76.0499 67.7952 15.8706 
363 C 1 78.6894 68.7222 16.4009 
272 C 1 67.7153 74.5972 22.2686 
284 C 1 67.7428 74.1551 19.8833 
285 C 1 67.8238 73.6706 21.2073 
286 C 1 68.2101 72.3307 21.4719 
294 C 1 67.7877 73.7262 17.4958 
295 C 1 67.9013 73.2406 18.818 
296 C 1 68.3733 71.9288 19.0869 
297 C 1 68.6031 71.4875 20.4086 
307 C 1 68.0109 72.8337 16.4242 
308 C 1 68.5717 71.5604 16.7017 
525 C 1 68.4082 71.8833 22.7963 
298 C 1 69.3921 70.3368 20.6741 
299 C 1 69.7179 69.9669 21.997 
300 C 1 70.7721 69.0515 22.2577 
309 C 1 68.8247 71.1212 18.0204 
310 C 1 69.6887 70.0262 18.2916 
311 C 1 70.0378 69.6674 19.6113 
312 C 1 71.1493 68.822 19.8734 
321 C 1 70.3846 69.4127 17.2294 
526 C 1 69.1201 70.6833 23.0585 
320 C 1 70.0239 69.7705 15.9142 
319 C 1 69.092 70.8026 15.6341 
5351 H 2 74.4667 71.7561 21.3391 
5343 O 3 74.3024 74.0088 21.8865 
5511 O 3 73.0435 71.9185 16.4314 
4890 O 3 71.3002 73.3118 18.5998 
4892 H 2 71.8856 73.0994 17.8728 
4891 H 2 71.1582 72.4767 19.0454 
5345 H 2 74.505 74.5605 21.131 
5344 H 2 74.9358 74.2733 22.5536 
4533 O 3 74.1892 74.4302 17.1939 
5512 H 2 73.6922 72.5968 16.6191 
4808 H 2 73.2091 74.8857 22.8028 
5350 H 2 75.0702 71.507 19.9733 
5349 O 3 75.0136 71.1378 20.8546 
4543 H 2 75.2395 71.1651 23.4033 
5424 O 3 75.7087 72.4562 18.3817 
5426 H 2 76.3151 72.8814 18.9881 
5018 H 2 78.576 73.3334 17.0863 
5425 H 2 75.1568 73.1673 18.0563 
342 C 1 79.123 68.9883 21.4438 
352 C 1 79.486 69.2503 19.0535 
353 C 1 79.8579 69.5646 20.3809 
354 C 1 80.801 70.5926 20.6472 
355 C 1 81.0803 70.9887 21.9749 
364 C 1 79.8237 69.5375 16.6609 
365 C 1 80.1812 69.8713 17.9888 
366 C 1 81.059 70.9557 18.2577 
577 C 1 79.5125 69.2744 22.7718 
578 C 1 80.5188 70.2405 23.0363 
5016 O 3 79.1409 74.0317 17.4172 
4590 O 3 77.4016 72.1071 15.9999 
5452 H 2 77.7556 74.5233 20.338 
5453 H 2 78.1669 74.4714 18.882 
5451 O 3 77.4303 74.6891 19.4532 
5017 H 2 80.0239 73.77 17.1562 
5683 H 2 79.0192 74.6584 22.8697 
5682 O 3 78.5822 74.9713 22.0776 
4591 H 2 76.833 71.8967 16.7407 
4535 H 2 75.0176 74.8184 16.9126 
356 C 1 81.7322 72.2219 22.2412 
367 C 1 81.3147 71.3725 19.5846 
368 C 1 81.8862 72.6452 19.8543 
369 C 1 82.0315 73.109 21.1809 
370 C 1 82.2682 74.4845 21.445 
377 C 1 81.5184 71.767 17.1938 
378 C 1 82.0002 73.0748 17.4703 
379 C 1 82.1238 73.5497 18.7943 
380 C 1 82.2726 74.9382 19.0577 
387 C 1 82.1599 73.9947 16.4121 
376 C 1 81.2865 71.3351 15.8664 
413 C 1 82.2928 74.9649 22.7739 
293 C 1 67.6786 75.115 17.2307 
258 C 1 68.6693 78.6417 21.4805 
268 C 1 68.4631 78.2503 19.0967 
269 C 1 68.2597 77.8039 20.4197 
270 C 1 67.8497 76.4711 20.6812 
271 C 1 67.7679 75.9905 22.0058 
280 C 1 68.2914 77.8461 16.7136 
281 C 1 68.1044 77.3908 18.0356 
282 C 1 67.7652 76.0384 18.296 
283 C 1 67.716 75.549 19.6194 
497 C 1 68.438 78.2128 22.8048 
498 C 1 67.9474 76.9074 23.0659 
292 C 1 67.7043 75.6082 15.9077 
291 C 1 67.982 76.9718 15.6506 
4799 H 2 74.2579 78.9766 18.4076 
244 C 1 70.1313 80.4433 22.2792 
255 C 1 70.8643 81.047 19.6309 
256 C 1 69.8018 80.1446 19.8965 
257 C 1 69.4746 79.7801 21.2193 
265 C 1 70.5021 80.7943 17.2443 
266 C 1 69.5064 79.8209 17.5154 
267 C 1 69.1946 79.4381 18.8362 
279 C 1 68.9609 79.0685 16.456 
264 C 1 70.8953 81.0885 15.9203 
4677 O 3 70.9236 76.5732 21.8616 
4678 H 2 70.5475 76.9464 22.6588 
4679 H 2 71.8218 76.3473 22.103 
5105 H 2 70.7977 76.0951 20.0038 
5103 O 3 70.9021 76.2098 19.0592 
5104 H 2 70.8662 75.3216 18.7043 
5381 H 2 74.187 77.2723 22.88 
5380 H 2 74.458 78.1516 21.6778 
5186 H 2 71.9031 77.6095 16.7634 
5050 H 2 71.7854 77.7732 19.6473 
5379 O 3 74.0443 78.156 22.541 
4929 O 3 74.7563 75.8907 19.9775 
5051 H 2 72.5857 78.2492 20.8409 
4930 H 2 74.4038 76.2587 19.1672 
5049 O 3 72.4838 78.3779 19.8979 
4534 H 2 73.5509 75.1384 17.1083 
4797 O 3 74.6532 78.5906 17.6259 
5185 H 2 73.4083 77.7433 16.8542 
5184 O 3 72.711 77.406 16.292 
4780 H 2 76.2453 76.4825 23.1408 
5684 H 2 77.6733 75.11 22.3439 
4931 H 2 75.7045 75.8869 19.8467 
4620 O 3 76.563 75.9411 16.8164 
204 C 1 81.1408 78.9383 19.8589 
205 C 1 80.8715 79.3323 21.1892 
206 C 1 79.9385 80.3683 21.4588 
210 C 1 80.8667 79.3129 17.4715 
211 C 1 80.58 79.6942 18.802 
212 C 1 79.5853 80.6709 19.0737 
213 C 1 79.206 80.9596 20.4033 
223 C 1 80.2496 80.0205 16.4131 
224 C 1 79.2005 80.9344 16.6908 
225 C 1 78.8137 81.2125 18.0199 
441 C 1 79.576 80.6788 22.7883 
4779 O 3 76.1213 75.5342 23.1009 
4622 H 2 77.2067 75.8767 17.5218 
4798 H 2 75.4356 79.1186 17.467 
5223 O 3 77.0368 78.5065 15.6533 
4621 H 2 76.3784 76.8776 16.7447 
197 C 1 82.2736 75.4222 20.3855 
198 C 1 82.0685 76.803 20.6498 
199 C 1 81.9403 77.2646 21.9797 
200 C 1 81.3819 78.5429 22.2468 
201 C 1 82.2108 75.8739 17.9988 
202 C 1 81.9253 77.2405 18.2616 
203 C 1 81.7755 77.6959 19.5914 
209 C 1 81.5751 78.1122 17.2029 
388 C 1 82.2262 75.3888 16.6722 
414 C 1 82.1731 76.355 23.0387 
208 C 1 81.7424 77.664 15.8731 
243 C 1 71.2532 81.2705 22.0154 
254 C 1 71.2675 81.3241 18.307 
230 C 1 73.8844 82.2236 21.4818 
239 C 1 74.8128 82.335 18.8333 
240 C 1 73.4284 82.1723 19.0997 
241 C 1 72.9653 82.0354 20.4257 
242 C 1 71.6713 81.5175 20.6905 
251 C 1 74.3497 82.3361 16.4501 
252 C 1 72.9796 82.0904 16.7168 
253 C 1 72.5238 81.9278 18.0422 
469 C 1 73.414 82.124 22.8084 
470 C 1 72.0896 81.6908 23.0733 
263 C 1 72.1035 81.7779 15.6544 
214 C 1 77.9967 81.653 20.6729 
215 C 1 77.5549 81.8327 22.0018 
216 C 1 76.21 82.1969 22.2697 
226 C 1 77.5673 81.8363 18.2907 
227 C 1 77.1173 81.992 19.6195 
228 C 1 75.7531 82.2788 19.8871 
229 C 1 75.2756 82.3027 21.215 
237 C 1 76.6673 82.1217 17.2394 
238 C 1 75.2902 82.3366 17.5051 
442 C 1 78.4117 81.445 23.0572 
236 C 1 77.1185 81.9783 15.9107 
235 C 1 78.3901 81.4136 15.6389 
518 C 1 71.6018 68.5408 28.6191 
519 C 1 72.0329 68.3346 29.9487 
520 C 1 73.3577 67.8968 30.2095 
530 C 1 72.0132 68.3408 26.2306 
531 C 1 72.4588 68.1612 27.5591 
532 C 1 73.8089 67.8081 27.8198 
533 C 1 74.2835 67.7468 29.1494 
540 C 1 72.4332 68.1707 23.8423 
541 C 1 72.8917 68.0174 25.1698 
542 C 1 74.2615 67.7494 25.4306 
543 C 1 74.7414 67.7169 26.7593 
567 C 1 77.4809 68.1476 23.5706 
534 C 1 75.6788 67.7433 29.4109 
535 C 1 76.152 67.8022 30.7414 
536 C 1 77.5037 68.148 31.0034 
544 C 1 76.1344 67.7998 27.0209 
545 C 1 76.6051 67.8882 28.3506 
546 C 1 77.9324 68.3186 28.6128 
547 C 1 78.364 68.5224 29.9432 
555 C 1 75.197 67.7171 24.3696 
556 C 1 76.5822 67.8864 24.6317 
557 C 1 77.0492 68.0025 25.9603 
558 C 1 78.3469 68.5156 26.2227 
568 C 1 78.7432 68.742 23.8332 
559 C 1 78.7655 68.7485 27.5523 
511 C 1 67.7615 74.1143 23.5944 
480 C 1 67.7652 74.0904 31.0161 
490 C 1 67.8402 73.6362 28.6282 
491 C 1 67.9476 73.1699 29.9571 
492 C 1 68.4279 71.8599 30.2175 
501 C 1 67.7173 74.5667 25.9806 
502 C 1 67.9417 73.1897 26.2418 
503 C 1 68.0783 72.7289 27.5696 
504 C 1 68.6379 71.4507 27.83 
512 C 1 68.0666 72.7532 23.8566 
513 C 1 68.2332 72.299 25.183 
4773 O 3 72.2451 72.7052 24.7923 
4807 H 2 72.669 74.739 24.2094 
4775 H 2 73.0411 72.1755 24.7473 
4827 O 3 73.2966 72.6282 30.2458 
4828 H 2 73.9424 73.3285 30.3402 
539 C 1 71.1765 68.7792 23.5832 
505 C 1 68.8839 71.0398 29.1586 
506 C 1 69.7453 69.9421 29.4185 
507 C 1 70.0865 69.6083 30.748 
508 C 1 71.2016 68.7696 31.0083 
514 C 1 68.8693 71.0572 25.4438 
515 C 1 69.1425 70.6604 26.7711 
516 C 1 70.0708 69.6185 27.0309 
517 C 1 70.4346 69.3059 28.3593 
527 C 1 69.4203 70.3006 24.384 
528 C 1 70.4128 69.3192 24.6439 
529 C 1 70.7984 69.0282 25.971 
4829 H 2 73.2449 72.2308 31.1151 
4774 H 2 71.5905 72.1957 24.3148 
4977 O 3 74.2145 74.0236 27.4467 
4978 H 2 73.9233 73.157 27.7301 
4687 H 2 74.8491 71.5414 29.2372 
5552 H 2 71.6518 73.793 29.6607 
5550 O 3 71.1152 74.46 30.089 
4979 H 2 73.7313 74.6334 28.0043 
5551 H 2 71.4102 74.457 30.9996 
4544 H 2 75.6146 72.3205 24.3067 
4542 O 3 75.0478 71.5506 24.2581 
4686 O 3 75.775 71.2988 29.2422 
4688 H 2 76.1242 71.701 30.0375 
5355 O 3 76.682 73.2589 26.9504 
5356 H 2 76.6586 72.3777 27.3235 
5357 H 2 75.8295 73.635 27.1697 
548 C 1 79.5368 69.2784 30.2057 
560 C 1 79.886 69.5798 27.8152 
561 C 1 80.2308 69.9101 29.1456 
562 C 1 81.0995 71.0017 29.409 
569 C 1 79.1501 68.9984 25.162 
570 C 1 80.2146 69.9003 25.4255 
571 C 1 80.538 70.2538 26.7551 
579 C 1 80.8216 70.6142 24.3651 
5313 O 3 78.7514 73.2854 29.3766 
5315 H 2 78.7046 73.2801 30.3326 
5314 H 2 78.5898 72.3766 29.1233 
4853 H 2 77.7096 74.5636 25.8437 
5722 H 2 78.2807 74.8833 28.9 
5559 O 3 75.0337 74.5445 30.8674 
5560 H 2 75.8702 74.2184 31.1995 
585 C 1 81.9038 72.6719 23.5696 
563 C 1 81.3464 71.4087 30.74 
564 C 1 81.913 72.6836 31.0035 
572 C 1 81.3377 71.3969 27.019 
573 C 1 81.5603 71.8193 28.3493 
574 C 1 82.0476 73.1265 28.6131 
575 C 1 82.1566 73.5904 29.9439 
576 C 1 82.3019 74.9779 30.208 
580 C 1 81.549 71.8045 24.6296 
581 C 1 81.7466 72.2409 25.9591 
582 C 1 82.1517 73.5758 26.2231 
583 C 1 82.2329 74.0464 27.5534 
586 C 1 82.2255 74.0295 23.8336 
587 C 1 82.2769 74.5053 25.1633 
489 C 1 67.7003 75.0243 28.3674 
500 C 1 67.7012 75.0485 24.6536 
464 C 1 68.4223 78.1886 30.2243 
476 C 1 68.2279 77.7714 27.8373 
477 C 1 68.0632 77.3215 29.1657 
478 C 1 67.7556 75.9606 29.4264 
479 C 1 67.7119 75.4846 30.7555 
485 C 1 68.6399 78.6165 25.1906 
486 C 1 68.0645 77.345 25.4511 
487 C 1 67.9284 76.8828 26.7785 
488 C 1 67.7126 75.5043 27.0393 
499 C 1 67.8322 76.4374 24.392 
5662 H 2 72.6232 78.5861 29.8091 
4806 O 3 72.7998 75.3814 23.512 
5375 H 2 72.2377 76.4592 27.55 
4877 H 2 74.362 78.7772 24.7712 
4876 H 2 73.5427 78.6122 26.0335 
4875 O 3 74.4244 78.8216 25.7253 
5370 O 3 71.8413 76.6802 25.7642 
5372 H 2 71.1409 76.0324 25.6864 
5371 H 2 72.2925 76.6483 24.9207 
483 C 1 69.7817 80.1057 23.6038 
450 C 1 71.2443 81.2377 29.4303 
451 C 1 70.8438 80.9787 30.7594 
452 C 1 69.7754 80.0819 31.0211 
460 C 1 70.8544 80.9914 27.0455 
461 C 1 70.4695 80.7062 28.3734 
462 C 1 69.4577 79.7459 28.6346 
463 C 1 69.1579 79.3739 29.9634 
472 C 1 70.4825 80.726 24.6622 
473 C 1 70.1135 80.4152 25.9885 
474 C 1 69.1621 79.3948 26.2493 
475 C 1 68.885 79.0023 27.5768 
484 C 1 68.8998 79.0251 23.8648 
5374 H 2 71.7554 76.2521 28.97 
5373 O 3 72.5371 76.4627 28.4592 
5147 H 2 74.1455 76.634 29.0175 
5661 O 3 73.1556 78.7276 30.5919 
5663 H 2 73.5543 77.8754 30.7681 
4940 H 2 77.2646 77.7502 24.7869 
4938 O 3 77.4007 77.79 23.8402 
4939 H 2 78.2746 77.4226 23.7077 
4781 H 2 76.4121 75.218 23.9564 
5090 H 2 76.0769 78.2334 26.2117 
5088 O 3 76.8613 77.7474 26.4663 
5089 H 2 77.3262 78.3364 27.0606 
4852 H 2 77.5099 76.0631 25.9035 
4851 O 3 77.9925 75.3818 25.4354 
5723 H 2 77.0416 75.4014 28.2014 
4641 O 3 77.3398 78.5222 28.9282 
4642 H 2 77.4262 78.8002 29.84 
4643 H 2 77.7422 77.6541 28.9028 
5145 O 3 75.0345 76.7237 29.3608 
5146 H 2 75.3378 77.5669 29.0244 
5721 O 3 77.8473 75.6924 28.6285 
429 C 1 79.9264 80.3769 25.1748 
430 C 1 78.8125 81.2149 25.4426 
427 C 1 81.1352 78.9519 23.5768 
400 C 1 81.1325 78.9585 31.0095 
406 C 1 80.8665 79.3384 28.6205 
407 C 1 80.5694 79.7104 29.951 
408 C 1 79.5676 80.6806 30.2167 
418 C 1 80.5778 79.7004 26.2325 
419 C 1 80.2577 80.0538 27.5625 
420 C 1 79.1981 80.9599 27.8291 
421 C 1 78.7988 81.2206 29.1588 
428 C 1 80.2689 80.044 23.8453 
5561 H 2 75.2717 75.2649 30.2837 
4588 H 2 76.7782 76.6832 30.8242 
416 C 1 81.593 78.1322 24.6352 
397 C 1 82.2488 75.9152 29.1485 
417 C 1 81.3736 78.5558 25.9653 
404 C 1 81.78 77.7096 27.024 
403 C 1 82.1714 76.3713 26.7583 
405 C 1 81.5902 78.1464 28.3545 
399 C 1 81.7805 77.7234 30.7443 
584 C 1 82.289 75.4402 27.8178 
415 C 1 82.0693 76.8217 24.3687 
398 C 1 81.944 77.2764 29.4134 
588 C 1 82.2429 75.8996 25.428 
459 C 1 72.073 81.6696 26.7831 
458 C 1 72.5175 81.8511 25.4559 
471 C 1 71.6565 81.4783 24.3993 
446 C 1 74.802 82.2895 26.2474 
449 C 1 72.5022 81.84 29.1678 
457 C 1 73.8665 82.2025 25.1915 
436 C 1 73.403 82.1077 30.2246 
448 C 1 72.9558 81.9911 27.8394 
447 C 1 74.3244 82.2579 27.5755 
456 C 1 74.3421 82.2646 23.8642 
435 C 1 74.7861 82.2864 29.9609 
455 C 1 75.7356 82.2578 23.5977 
444 C 1 76.6622 82.1019 24.6534 
424 C 1 75.7251 82.2553 31.0183 
431 C 1 78.3971 81.4507 26.7718 
445 C 1 76.1929 82.1954 25.9817 
432 C 1 77.1076 81.9807 27.0382 
422 C 1 77.5449 81.8306 29.4244 
423 C 1 77.0926 81.9821 30.7539 
434 C 1 75.2636 82.2864 28.632 
443 C 1 77.9821 81.6544 24.386 
433 C 1 76.6459 82.1031 28.3671 
509 C 1 71.6158 68.5352 32.3387 
510 C 1 72.91 68.014 32.5998 